 Entering Gaussian System, Link 0=g09
 Input=Acroleina_water_15_34c.gjf
 Output=Acroleina_water_15_34c.log
 Initial command:
 /usr/local/pacerepov1/gaussian/G09D01LINDA/g09/l1.exe /nv/hp18/holiveira7/scratch/22411881/Gau-19591.inp -scrdir=/nv/hp18/holiveira7/scratch/22411881/
 Entering Link 1 = /usr/local/pacerepov1/gaussian/G09D01LINDA/g09/l1.exe PID=     19593.
  
 Copyright (c) 1988,1990,1992,1993,1995,1998,2003,2009,2013,
            Gaussian, Inc.  All Rights Reserved.
  
 This is part of the Gaussian(R) 09 program.  It is based on
 the Gaussian(R) 03 system (copyright 2003, Gaussian, Inc.),
 the Gaussian(R) 98 system (copyright 1998, Gaussian, Inc.),
 the Gaussian(R) 94 system (copyright 1995, Gaussian, Inc.),
 the Gaussian 92(TM) system (copyright 1992, Gaussian, Inc.),
 the Gaussian 90(TM) system (copyright 1990, Gaussian, Inc.),
 the Gaussian 88(TM) system (copyright 1988, Gaussian, Inc.),
 the Gaussian 86(TM) system (copyright 1986, Carnegie Mellon
 University), and the Gaussian 82(TM) system (copyright 1983,
 Carnegie Mellon University). Gaussian is a federally registered
 trademark of Gaussian, Inc.
  
 This software contains proprietary and confidential information,
 including trade secrets, belonging to Gaussian, Inc.
  
 This software is provided under written license and may be
 used, copied, transmitted, or stored only in accord with that
 written license.
  
 The following legend is applicable only to US Government
 contracts under FAR:
  
                    RESTRICTED RIGHTS LEGEND
  
 Use, reproduction and disclosure by the US Government is
 subject to restrictions as set forth in subparagraphs (a)
 and (c) of the Commercial Computer Software - Restricted
 Rights clause in FAR 52.227-19.
  
 Gaussian, Inc.
 340 Quinnipiac St., Bldg. 40, Wallingford CT 06492
  
  
 ---------------------------------------------------------------
 Warning -- This program may not be used in any manner that
 competes with the business of Gaussian, Inc. or will provide
 assistance to any competitor of Gaussian, Inc.  The licensee
 of this program is prohibited from giving any competitor of
 Gaussian, Inc. access to this program.  By using this program,
 the user acknowledges that Gaussian, Inc. is engaged in the
 business of creating and licensing software in the field of
 computational chemistry and represents and warrants to the
 licensee that it is not a competitor of Gaussian, Inc. and that
 it will not use this program in any manner prohibited above.
 ---------------------------------------------------------------
  

 Cite this work as:
 Gaussian 09, Revision D.01,
 M. J. Frisch, G. W. Trucks, H. B. Schlegel, G. E. Scuseria, 
 M. A. Robb, J. R. Cheeseman, G. Scalmani, V. Barone, B. Mennucci, 
 G. A. Petersson, H. Nakatsuji, M. Caricato, X. Li, H. P. Hratchian, 
 A. F. Izmaylov, J. Bloino, G. Zheng, J. L. Sonnenberg, M. Hada, 
 M. Ehara, K. Toyota, R. Fukuda, J. Hasegawa, M. Ishida, T. Nakajima, 
 Y. Honda, O. Kitao, H. Nakai, T. Vreven, J. A. Montgomery, Jr., 
 J. E. Peralta, F. Ogliaro, M. Bearpark, J. J. Heyd, E. Brothers, 
 K. N. Kudin, V. N. Staroverov, T. Keith, R. Kobayashi, J. Normand, 
 K. Raghavachari, A. Rendell, J. C. Burant, S. S. Iyengar, J. Tomasi, 
 M. Cossi, N. Rega, J. M. Millam, M. Klene, J. E. Knox, J. B. Cross, 
 V. Bakken, C. Adamo, J. Jaramillo, R. Gomperts, R. E. Stratmann, 
 O. Yazyev, A. J. Austin, R. Cammi, C. Pomelli, J. W. Ochterski, 
 R. L. Martin, K. Morokuma, V. G. Zakrzewski, G. A. Voth, 
 P. Salvador, J. J. Dannenberg, S. Dapprich, A. D. Daniels, 
 O. Farkas, J. B. Foresman, J. V. Ortiz, J. Cioslowski, 
 and D. J. Fox, Gaussian, Inc., Wallingford CT, 2013.
 
 ******************************************
 Gaussian 09:  EM64L-G09RevD.01 24-Apr-2013
                14-Sep-2018 
 ******************************************
 %chk=Acrolina_Din_34.chk
 %nprocshared=10
 Will use up to   10 processors via shared memory.
 -------------------------------------------
 #p td=(nstates=15)/6-31+g(d) lc-wpbe charge
 -------------------------------------------
 1/18=10,28=-2,38=1,125=101/1;
 2/12=2,17=6,18=5,40=1/2;
 3/5=1,6=6,7=11,11=9,16=1,25=1,30=1,74=-41/1,2,8,3;
 4//1;
 5/5=2,38=5/2;
 8/6=1,10=2,108=15/1;
 9/41=15,42=1,70=2/14;
 6/7=2,8=2,9=2,10=2/1;
 99/5=1,9=1/99;
 Leave Link    1 at Fri Sep 14 17:03:02 2018, MaxMem=           0 cpu:         9.3
 (Enter /usr/local/pacerepov1/gaussian/G09D01LINDA/g09/l101.exe)
 ------------------
 Acroleina in Water
 ------------------
 Symbolic Z-matrix:
 Charge =  0 Multiplicity = 1
 C                     0.48515   0.48044  -1.43014 
 H                     1.4614    0.18777  -1.05573 
 H                     0.42924   0.87885  -2.43706 
 C                    -0.60513   0.34656  -0.65843 
 H                    -1.59169   0.63289  -1.01241 
 C                    -0.50852  -0.19911   0.7128 
 H                    -1.45849  -0.27211   1.27244 
 O                     0.54488  -0.56132   1.23652 
 O                     2.62211   1.5815    1.93004 
 H                     2.43798   2.51556   1.6239 
 H                     1.76631   1.06489   1.95713 
 O                    -0.14982  -1.31187   3.72141 
 H                     0.18577  -0.73486   2.9768 
 H                     0.20048  -0.96857   4.5929 
 O                     0.99871  -3.37245   3.48359 
 H                     0.57414  -2.46803   3.52611 
 H                     0.29015  -4.07607   3.53694 
 O                    -2.34277  -1.92251   4.08071 
 H                    -2.38082  -2.32655   4.99469 
 H                    -1.40021  -1.66342   3.86983 
 O                     2.15072   3.63041   0.7373 
 H                     2.73873   4.08933   0.07124 
 H                     1.23324   3.52349   0.35406 
 O                     3.88145  -1.22066  -4.21445 
 H                     3.37124  -0.79613  -4.96248 
 H                     4.30058  -0.50884  -3.65082 
 O                    -4.54879  -1.9969    3.2841 
 H                    -3.55603  -1.94449   3.39248 
 H                    -4.85577  -2.92992   3.4721 
 O                     0.05015   4.06619  -0.19137 
 H                     0.40918   4.9945   -0.09456 
 H                    -0.93888   4.07429  -0.04369 
 O                     2.54517  -0.43288  -6.09549 
 H                     2.6958    0.5455   -6.23738 
 H                     1.5894   -0.6544   -6.28888 
 O                     5.15446   1.4258    1.42686 
 H                     5.33272   1.81519   0.52317 
 H                     4.18075   1.50858   1.63924 
 O                    -4.73317   1.22946  -4.38265 
 H                    -4.86582   0.30166  -4.03385 
 H                    -3.76701   1.47745  -4.31105 
 O                    -2.40194   4.33582   0.00148 
 H                    -3.0767    3.79605  -0.50192 
 H                    -2.78408   4.60708   0.8849 
 O                    -4.55587  -0.40353   5.00752 
 H                    -3.63174  -0.097     4.77933 
 H                    -4.83665  -1.11985   4.36867 
 O                    -4.39644   3.2992   -0.45699 
 H                    -4.78206   4.06623   0.05584 
 H                    -4.94975   2.48121  -0.2995 
 
 NAtoms=     50 NQM=       50 NQMF=       0 NMMI=      0 NMMIF=      0
                NMic=       0 NMicF=      0.
                    Isotopes and Nuclear Properties:
 (Nuclear quadrupole moments (NQMom) in fm**2, nuclear magnetic moments (NMagM)
  in nuclear magnetons)

  Atom         1           2           3           4           5           6           7           8           9          10
 IAtWgt=          12           1           1          12           1          12           1          16          16           1
 AtmWgt=  12.0000000   1.0078250   1.0078250  12.0000000   1.0078250  12.0000000   1.0078250  15.9949146  15.9949146   1.0078250
 NucSpn=           0           1           1           0           1           0           1           0           0           1
 AtZEff=   0.0000000   0.0000000   0.0000000   0.0000000   0.0000000   0.0000000   0.0000000   0.0000000   0.0000000   0.0000000
 NQMom=    0.0000000   0.0000000   0.0000000   0.0000000   0.0000000   0.0000000   0.0000000   0.0000000   0.0000000   0.0000000
 NMagM=    0.0000000   2.7928460   2.7928460   0.0000000   2.7928460   0.0000000   2.7928460   0.0000000   0.0000000   2.7928460
 AtZNuc=   6.0000000   1.0000000   1.0000000   6.0000000   1.0000000   6.0000000   1.0000000   8.0000000   8.0000000   1.0000000

  Atom        11          12          13          14          15          16          17          18          19          20
 IAtWgt=           1          16           1           1          16           1           1          16           1           1
 AtmWgt=   1.0078250  15.9949146   1.0078250   1.0078250  15.9949146   1.0078250   1.0078250  15.9949146   1.0078250   1.0078250
 NucSpn=           1           0           1           1           0           1           1           0           1           1
 AtZEff=   0.0000000   0.0000000   0.0000000   0.0000000   0.0000000   0.0000000   0.0000000   0.0000000   0.0000000   0.0000000
 NQMom=    0.0000000   0.0000000   0.0000000   0.0000000   0.0000000   0.0000000   0.0000000   0.0000000   0.0000000   0.0000000
 NMagM=    2.7928460   0.0000000   2.7928460   2.7928460   0.0000000   2.7928460   2.7928460   0.0000000   2.7928460   2.7928460
 AtZNuc=   1.0000000   8.0000000   1.0000000   1.0000000   8.0000000   1.0000000   1.0000000   8.0000000   1.0000000   1.0000000

  Atom        21          22          23          24          25          26          27          28          29          30
 IAtWgt=          16           1           1          16           1           1          16           1           1          16
 AtmWgt=  15.9949146   1.0078250   1.0078250  15.9949146   1.0078250   1.0078250  15.9949146   1.0078250   1.0078250  15.9949146
 NucSpn=           0           1           1           0           1           1           0           1           1           0
 AtZEff=   0.0000000   0.0000000   0.0000000   0.0000000   0.0000000   0.0000000   0.0000000   0.0000000   0.0000000   0.0000000
 NQMom=    0.0000000   0.0000000   0.0000000   0.0000000   0.0000000   0.0000000   0.0000000   0.0000000   0.0000000   0.0000000
 NMagM=    0.0000000   2.7928460   2.7928460   0.0000000   2.7928460   2.7928460   0.0000000   2.7928460   2.7928460   0.0000000
 AtZNuc=   8.0000000   1.0000000   1.0000000   8.0000000   1.0000000   1.0000000   8.0000000   1.0000000   1.0000000   8.0000000

  Atom        31          32          33          34          35          36          37          38          39          40
 IAtWgt=           1           1          16           1           1          16           1           1          16           1
 AtmWgt=   1.0078250   1.0078250  15.9949146   1.0078250   1.0078250  15.9949146   1.0078250   1.0078250  15.9949146   1.0078250
 NucSpn=           1           1           0           1           1           0           1           1           0           1
 AtZEff=   0.0000000   0.0000000   0.0000000   0.0000000   0.0000000   0.0000000   0.0000000   0.0000000   0.0000000   0.0000000
 NQMom=    0.0000000   0.0000000   0.0000000   0.0000000   0.0000000   0.0000000   0.0000000   0.0000000   0.0000000   0.0000000
 NMagM=    2.7928460   2.7928460   0.0000000   2.7928460   2.7928460   0.0000000   2.7928460   2.7928460   0.0000000   2.7928460
 AtZNuc=   1.0000000   1.0000000   8.0000000   1.0000000   1.0000000   8.0000000   1.0000000   1.0000000   8.0000000   1.0000000

  Atom        41          42          43          44          45          46          47          48          49          50
 IAtWgt=           1          16           1           1          16           1           1          16           1           1
 AtmWgt=   1.0078250  15.9949146   1.0078250   1.0078250  15.9949146   1.0078250   1.0078250  15.9949146   1.0078250   1.0078250
 NucSpn=           1           0           1           1           0           1           1           0           1           1
 AtZEff=   0.0000000   0.0000000   0.0000000   0.0000000   0.0000000   0.0000000   0.0000000   0.0000000   0.0000000   0.0000000
 NQMom=    0.0000000   0.0000000   0.0000000   0.0000000   0.0000000   0.0000000   0.0000000   0.0000000   0.0000000   0.0000000
 NMagM=    2.7928460   0.0000000   2.7928460   2.7928460   0.0000000   2.7928460   2.7928460   0.0000000   2.7928460   2.7928460
 AtZNuc=   1.0000000   8.0000000   1.0000000   1.0000000   8.0000000   1.0000000   1.0000000   8.0000000   1.0000000   1.0000000
 Background charge distribution read from input stream:
 Point Charges:
 XYZ=    5.4146   -0.1768   -2.7438 Q=   -0.8200 A=    0.0000 R=    0.0000 C=    0.0000
 XYZ=    5.9867   -0.1171   -3.5618 Q=    0.4100 A=    0.0000 R=    0.0000 C=    0.0000
 XYZ=    5.7903   -0.8656   -2.1238 Q=    0.4100 A=    0.0000 R=    0.0000 C=    0.0000
 XYZ=    5.6638    1.5815   -1.2569 Q=   -0.8200 A=    0.0000 R=    0.0000 C=    0.0000
 XYZ=    5.2808    2.4357   -1.6086 Q=    0.4100 A=    0.0000 R=    0.0000 C=    0.0000
 XYZ=    5.5127    0.8499   -1.9218 Q=    0.4100 A=    0.0000 R=    0.0000 C=    0.0000
 XYZ=    2.4502   -2.1813    4.8073 Q=   -0.8200 A=    0.0000 R=    0.0000 C=    0.0000
 XYZ=    3.3238   -2.0032    4.3543 Q=    0.4100 A=    0.0000 R=    0.0000 C=    0.0000
 XYZ=    1.9101   -2.8143    4.2527 Q=    0.4100 A=    0.0000 R=    0.0000 C=    0.0000
 XYZ=   -2.7758    2.2180   -4.9009 Q=   -0.8200 A=    0.0000 R=    0.0000 C=    0.0000
 XYZ=   -2.3367    3.0284   -4.5129 Q=    0.4100 A=    0.0000 R=    0.0000 C=    0.0000
 XYZ=   -2.8163    2.3054   -5.8963 Q=    0.4100 A=    0.0000 R=    0.0000 C=    0.0000
 XYZ=    0.9511   -0.8166    5.9288 Q=   -0.8200 A=    0.0000 R=    0.0000 C=    0.0000
 XYZ=    1.4690   -0.3313    6.6333 Q=    0.4100 A=    0.0000 R=    0.0000 C=    0.0000
 XYZ=    1.5682   -1.4070    5.4086 Q=    0.4100 A=    0.0000 R=    0.0000 C=    0.0000
 XYZ=   -2.6776    4.9730    2.4545 Q=   -0.8200 A=    0.0000 R=    0.0000 C=    0.0000
 XYZ=   -3.6164    4.6284    2.4624 Q=    0.4100 A=    0.0000 R=    0.0000 C=    0.0000
 XYZ=   -2.1353    4.4785    3.1338 Q=    0.4100 A=    0.0000 R=    0.0000 C=    0.0000
 XYZ=    4.9996   -3.1932   -3.4653 Q=   -0.8200 A=    0.0000 R=    0.0000 C=    0.0000
 XYZ=    5.4945   -2.8297   -2.6761 Q=    0.4100 A=    0.0000 R=    0.0000 C=    0.0000
 XYZ=    4.4881   -2.4558   -3.9066 Q=    0.4100 A=    0.0000 R=    0.0000 C=    0.0000
 XYZ=    2.6548   -4.9170    2.6091 Q=   -0.8200 A=    0.0000 R=    0.0000 C=    0.0000
 XYZ=    2.0153   -4.1989    2.8837 Q=    0.4100 A=    0.0000 R=    0.0000 C=    0.0000
 XYZ=    2.6841   -5.6249    3.3148 Q=    0.4100 A=    0.0000 R=    0.0000 C=    0.0000
 XYZ=   -6.1523    1.3471   -0.0309 Q=   -0.8200 A=    0.0000 R=    0.0000 C=    0.0000
 XYZ=   -6.4108    0.4315    0.2772 Q=    0.4100 A=    0.0000 R=    0.0000 C=    0.0000
 XYZ=   -6.6305    1.5593   -0.8832 Q=    0.4100 A=    0.0000 R=    0.0000 C=    0.0000
 XYZ=    3.1925    5.1104    2.4579 Q=   -0.8200 A=    0.0000 R=    0.0000 C=    0.0000
 XYZ=    2.6630    4.4404    1.9376 Q=    0.4100 A=    0.0000 R=    0.0000 C=    0.0000
 XYZ=    3.7385    5.6645    1.8294 Q=    0.4100 A=    0.0000 R=    0.0000 C=    0.0000
 XYZ=   -6.4898   -2.1343    1.9762 Q=   -0.8200 A=    0.0000 R=    0.0000 C=    0.0000
 XYZ=   -5.6225   -1.9880    2.4520 Q=    0.4100 A=    0.0000 R=    0.0000 C=    0.0000
 XYZ=   -6.5731   -3.0984    1.7241 Q=    0.4100 A=    0.0000 R=    0.0000 C=    0.0000
 XYZ=   -4.7807    4.4215   -2.6814 Q=   -0.8200 A=    0.0000 R=    0.0000 C=    0.0000
 XYZ=   -4.6269    3.9644   -1.8053 Q=    0.4100 A=    0.0000 R=    0.0000 C=    0.0000
 XYZ=   -5.5621    4.0020   -3.1434 Q=    0.4100 A=    0.0000 R=    0.0000 C=    0.0000
 XYZ=   -1.8126    4.2953   -4.4170 Q=   -0.8200 A=    0.0000 R=    0.0000 C=    0.0000
 XYZ=   -0.8838    4.1800   -4.0648 Q=    0.4100 A=    0.0000 R=    0.0000 C=    0.0000
 XYZ=   -2.2896    4.9896   -3.8781 Q=    0.4100 A=    0.0000 R=    0.0000 C=    0.0000
 XYZ=   -6.7474    2.4024    2.0562 Q=   -0.8200 A=    0.0000 R=    0.0000 C=    0.0000
 XYZ=   -6.0176    3.0277    2.3327 Q=    0.4100 A=    0.0000 R=    0.0000 C=    0.0000
 XYZ=   -6.4644    1.9004    1.2390 Q=    0.4100 A=    0.0000 R=    0.0000 C=    0.0000
 XYZ=    6.5645   -2.2426   -1.4269 Q=   -0.8200 A=    0.0000 R=    0.0000 C=    0.0000
 XYZ=    7.4804   -1.9409   -1.1620 Q=    0.4100 A=    0.0000 R=    0.0000 C=    0.0000
 XYZ=    6.1373   -2.7230   -0.6608 Q=    0.4100 A=    0.0000 R=    0.0000 C=    0.0000
 XYZ=   -4.9442    4.1582    2.3849 Q=   -0.8200 A=    0.0000 R=    0.0000 C=    0.0000
 XYZ=   -5.5116    4.6080    1.6950 Q=    0.4100 A=    0.0000 R=    0.0000 C=    0.0000
 XYZ=   -5.2666    4.4101    3.2974 Q=    0.4100 A=    0.0000 R=    0.0000 C=    0.0000
 XYZ=    6.6739   -0.1922    1.9099 Q=   -0.8200 A=    0.0000 R=    0.0000 C=    0.0000
 XYZ=    5.9238    0.4316    1.6904 Q=    0.4100 A=    0.0000 R=    0.0000 C=    0.0000
 XYZ=    6.3287   -1.1303    1.9419 Q=    0.4100 A=    0.0000 R=    0.0000 C=    0.0000
 XYZ=   -1.6659    6.0715   -1.3513 Q=   -0.8200 A=    0.0000 R=    0.0000 C=    0.0000
 XYZ=   -1.9583    5.3000   -0.7862 Q=    0.4100 A=    0.0000 R=    0.0000 C=    0.0000
 XYZ=   -1.6949    6.9114   -0.8094 Q=    0.4100 A=    0.0000 R=    0.0000 C=    0.0000
 XYZ=    4.2926   -1.9728   -7.0591 Q=   -0.8200 A=    0.0000 R=    0.0000 C=    0.0000
 XYZ=    4.3192   -2.8352   -6.5535 Q=    0.4100 A=    0.0000 R=    0.0000 C=    0.0000
 XYZ=    3.5421   -1.4082   -6.7157 Q=    0.4100 A=    0.0000 R=    0.0000 C=    0.0000
 XYZ=    4.7618   -1.6675    4.0198 Q=   -0.8200 A=    0.0000 R=    0.0000 C=    0.0000
 XYZ=    5.1328   -0.8932    4.5325 Q=    0.4100 A=    0.0000 R=    0.0000 C=    0.0000
 XYZ=    5.2929   -1.7981    3.1826 Q=    0.4100 A=    0.0000 R=    0.0000 C=    0.0000
 XYZ=    2.8419    1.7878   -6.8424 Q=   -0.8200 A=    0.0000 R=    0.0000 C=    0.0000
 XYZ=    3.8323    1.6892   -6.7450 Q=    0.4100 A=    0.0000 R=    0.0000 C=    0.0000
 XYZ=    2.5575    1.4322   -7.7327 Q=    0.4100 A=    0.0000 R=    0.0000 C=    0.0000
 XYZ=    7.4595    0.6763   -0.1128 Q=   -0.8200 A=    0.0000 R=    0.0000 C=    0.0000
 XYZ=    6.7196    1.0852   -0.6469 Q=    0.4100 A=    0.0000 R=    0.0000 C=    0.0000
 XYZ=    7.0810    0.2485    0.7081 Q=    0.4100 A=    0.0000 R=    0.0000 C=    0.0000
 XYZ=   -6.2309    3.0188   -3.9216 Q=   -0.8200 A=    0.0000 R=    0.0000 C=    0.0000
 XYZ=   -6.5969    3.4221   -4.7603 Q=    0.4100 A=    0.0000 R=    0.0000 C=    0.0000
 XYZ=   -5.6159    2.2655   -4.1549 Q=    0.4100 A=    0.0000 R=    0.0000 C=    0.0000
 XYZ=    3.4277    4.9847   -0.7241 Q=   -0.8200 A=    0.0000 R=    0.0000 C=    0.0000
 XYZ=    3.9009    5.5553   -0.0529 Q=    0.4100 A=    0.0000 R=    0.0000 C=    0.0000
 XYZ=    4.0917    4.4032   -1.1943 Q=    0.4100 A=    0.0000 R=    0.0000 C=    0.0000
 XYZ=    4.6789   -5.3933   -2.6494 Q=   -0.8200 A=    0.0000 R=    0.0000 C=    0.0000
 XYZ=    4.6838   -4.4504   -2.9823 Q=    0.4100 A=    0.0000 R=    0.0000 C=    0.0000
 XYZ=    4.4472   -6.0110   -3.4010 Q=    0.4100 A=    0.0000 R=    0.0000 C=    0.0000
 XYZ=   -0.4747   -2.2137    7.2000 Q=   -0.8200 A=    0.0000 R=    0.0000 C=    0.0000
 XYZ=    0.0939   -1.5661    6.6926 Q=    0.4100 A=    0.0000 R=    0.0000 C=    0.0000
 XYZ=   -1.2159   -2.5381    6.6123 Q=    0.4100 A=    0.0000 R=    0.0000 C=    0.0000
 XYZ=    5.1545    3.7884   -1.9401 Q=   -0.8200 A=    0.0000 R=    0.0000 C=    0.0000
 XYZ=    6.0470    4.0056   -1.5446 Q=    0.4100 A=    0.0000 R=    0.0000 C=    0.0000
 XYZ=    5.1992    3.8816   -2.9348 Q=    0.4100 A=    0.0000 R=    0.0000 C=    0.0000
 XYZ=    5.9488   -3.6810    0.2758 Q=   -0.8200 A=    0.0000 R=    0.0000 C=    0.0000
 XYZ=    5.4111   -4.4171    0.6869 Q=    0.4100 A=    0.0000 R=    0.0000 C=    0.0000
 XYZ=    6.8504   -4.0296    0.0199 Q=    0.4100 A=    0.0000 R=    0.0000 C=    0.0000
 XYZ=   -1.4891    6.9378    2.1024 Q=   -0.8200 A=    0.0000 R=    0.0000 C=    0.0000
 XYZ=   -1.9971    7.6245    2.6224 Q=    0.4100 A=    0.0000 R=    0.0000 C=    0.0000
 XYZ=   -1.8995    6.0377    2.2489 Q=    0.4100 A=    0.0000 R=    0.0000 C=    0.0000
 XYZ=   -5.4002    1.6324   -6.5223 Q=   -0.8200 A=    0.0000 R=    0.0000 C=    0.0000
 XYZ=   -5.8281    0.8180   -6.9141 Q=    0.4100 A=    0.0000 R=    0.0000 C=    0.0000
 XYZ=   -5.0228    1.4108   -5.6231 Q=    0.4100 A=    0.0000 R=    0.0000 C=    0.0000
 XYZ=    6.1445   -2.3776    2.2847 Q=   -0.8200 A=    0.0000 R=    0.0000 C=    0.0000
 XYZ=    6.0550   -2.9343    1.4588 Q=    0.4100 A=    0.0000 R=    0.0000 C=    0.0000
 XYZ=    6.3693   -2.9668    3.0609 Q=    0.4100 A=    0.0000 R=    0.0000 C=    0.0000
 XYZ=    4.6268   -5.2415    1.1971 Q=   -0.8200 A=    0.0000 R=    0.0000 C=    0.0000
 XYZ=    3.7652   -5.0433    1.6644 Q=    0.4100 A=    0.0000 R=    0.0000 C=    0.0000
 XYZ=    4.4627   -5.8956    0.4587 Q=    0.4100 A=    0.0000 R=    0.0000 C=    0.0000
 XYZ=   -6.3174    1.0466    5.4921 Q=   -0.8200 A=    0.0000 R=    0.0000 C=    0.0000
 XYZ=   -5.4613    0.5390    5.3947 Q=    0.4100 A=    0.0000 R=    0.0000 C=    0.0000
 XYZ=   -6.9720    0.4992    6.0136 Q=    0.4100 A=    0.0000 R=    0.0000 C=    0.0000
 XYZ=   -3.1054    5.8105   -3.2600 Q=   -0.8200 A=    0.0000 R=    0.0000 C=    0.0000
 XYZ=   -2.6690    6.0759   -2.4004 Q=    0.4100 A=    0.0000 R=    0.0000 C=    0.0000
 XYZ=   -3.8327    5.1496   -3.0744 Q=    0.4100 A=    0.0000 R=    0.0000 C=    0.0000
 XYZ=   -7.3617   -0.8882    0.1691 Q=   -0.8200 A=    0.0000 R=    0.0000 C=    0.0000
 XYZ=   -7.4854   -1.5027   -0.6101 Q=    0.4100 A=    0.0000 R=    0.0000 C=    0.0000
 XYZ=   -7.0381   -1.4111    0.9577 Q=    0.4100 A=    0.0000 R=    0.0000 C=    0.0000
 XYZ=    3.0470   -2.9569    6.9343 Q=   -0.8200 A=    0.0000 R=    0.0000 C=    0.0000
 XYZ=    2.8816   -2.5883    6.0195 Q=    0.4100 A=    0.0000 R=    0.0000 C=    0.0000
 XYZ=    3.4924   -2.2615    7.4982 Q=    0.4100 A=    0.0000 R=    0.0000 C=    0.0000
 XYZ=   -7.2163    2.2125   -1.9841 Q=   -0.8200 A=    0.0000 R=    0.0000 C=    0.0000
 XYZ=   -6.7565    2.3805   -2.8561 Q=    0.4100 A=    0.0000 R=    0.0000 C=    0.0000
 XYZ=   -8.1709    1.9666   -2.1526 Q=    0.4100 A=    0.0000 R=    0.0000 C=    0.0000
 XYZ=    1.8419   -6.7122    0.9370 Q=   -0.8200 A=    0.0000 R=    0.0000 C=    0.0000
 XYZ=    2.0303   -5.8276    1.3635 Q=    0.4100 A=    0.0000 R=    0.0000 C=    0.0000
 XYZ=    2.4450   -6.8376    0.1493 Q=    0.4100 A=    0.0000 R=    0.0000 C=    0.0000
 XYZ=    6.4430    2.9357    2.9496 Q=   -0.8200 A=    0.0000 R=    0.0000 C=    0.0000
 XYZ=    5.8354    3.6668    3.2600 Q=    0.4100 A=    0.0000 R=    0.0000 C=    0.0000
 XYZ=    5.8985    2.1924    2.5610 Q=    0.4100 A=    0.0000 R=    0.0000 C=    0.0000
 XYZ=    4.8859   -4.1242   -5.6443 Q=   -0.8200 A=    0.0000 R=    0.0000 C=    0.0000
 XYZ=    4.9456   -3.7471   -4.7200 Q=    0.4100 A=    0.0000 R=    0.0000 C=    0.0000
 XYZ=    5.7950   -4.4110   -5.9465 Q=    0.4100 A=    0.0000 R=    0.0000 C=    0.0000
 XYZ=    2.2900    4.0595   -7.1060 Q=   -0.8200 A=    0.0000 R=    0.0000 C=    0.0000
 XYZ=    2.6658    4.6873   -6.4244 Q=    0.4100 A=    0.0000 R=    0.0000 C=    0.0000
 XYZ=    2.5487    3.1218   -6.8738 Q=    0.4100 A=    0.0000 R=    0.0000 C=    0.0000
 XYZ=   -1.3979   -1.8979   -8.7648 Q=   -0.8200 A=    0.0000 R=    0.0000 C=    0.0000
 XYZ=   -1.5559   -2.7172   -9.3159 Q=    0.4100 A=    0.0000 R=    0.0000 C=    0.0000
 XYZ=   -1.8027   -2.0225   -7.8589 Q=    0.4100 A=    0.0000 R=    0.0000 C=    0.0000
 XYZ=    1.3056    6.0934   -0.5814 Q=   -0.8200 A=    0.0000 R=    0.0000 C=    0.0000
 XYZ=    2.1854    5.6194   -0.6197 Q=    0.4100 A=    0.0000 R=    0.0000 C=    0.0000
 XYZ=    0.9868    6.2800   -1.5107 Q=    0.4100 A=    0.0000 R=    0.0000 C=    0.0000
 XYZ=   -0.5303   -5.0807    4.4125 Q=   -0.8200 A=    0.0000 R=    0.0000 C=    0.0000
 XYZ=   -0.8548   -5.6882    3.6874 Q=    0.4100 A=    0.0000 R=    0.0000 C=    0.0000
 XYZ=    0.2537   -5.4986    4.8714 Q=    0.4100 A=    0.0000 R=    0.0000 C=    0.0000
 XYZ=    2.5209    0.1990    7.3954 Q=   -0.8200 A=    0.0000 R=    0.0000 C=    0.0000
 XYZ=    3.0946   -0.4778    7.8567 Q=    0.4100 A=    0.0000 R=    0.0000 C=    0.0000
 XYZ=    3.1003    0.8368    6.8880 Q=    0.4100 A=    0.0000 R=    0.0000 C=    0.0000
 XYZ=   -7.7060    1.1561    3.7713 Q=   -0.8200 A=    0.0000 R=    0.0000 C=    0.0000
 XYZ=   -7.2341    1.6589    3.0471 Q=    0.4100 A=    0.0000 R=    0.0000 C=    0.0000
 XYZ=   -7.1527    1.1732    4.6041 Q=    0.4100 A=    0.0000 R=    0.0000 C=    0.0000
 XYZ=   -2.4038   -3.0821    6.1523 Q=   -0.8200 A=    0.0000 R=    0.0000 C=    0.0000
 XYZ=   -3.0444   -2.9080    6.9003 Q=    0.4100 A=    0.0000 R=    0.0000 C=    0.0000
 XYZ=   -2.3364   -4.0672    5.9938 Q=    0.4100 A=    0.0000 R=    0.0000 C=    0.0000
 XYZ=   -5.1809   -2.0062    6.8070 Q=   -0.8200 A=    0.0000 R=    0.0000 C=    0.0000
 XYZ=   -4.7614   -1.3424    6.1877 Q=    0.4100 A=    0.0000 R=    0.0000 C=    0.0000
 XYZ=   -4.5099   -2.2953    7.4898 Q=    0.4100 A=    0.0000 R=    0.0000 C=    0.0000
 XYZ=    5.6083   -0.0401    5.4398 Q=   -0.8200 A=    0.0000 R=    0.0000 C=    0.0000
 XYZ=    5.8343   -0.5462    6.2722 Q=    0.4100 A=    0.0000 R=    0.0000 C=    0.0000
 XYZ=    5.0238    0.7377    5.6710 Q=    0.4100 A=    0.0000 R=    0.0000 C=    0.0000
 XYZ=    4.9459    4.6342    3.9890 Q=   -0.8200 A=    0.0000 R=    0.0000 C=    0.0000
 XYZ=    4.6829    4.1352    4.8148 Q=    0.4100 A=    0.0000 R=    0.0000 C=    0.0000
 XYZ=    4.1309    4.8280    3.4429 Q=    0.4100 A=    0.0000 R=    0.0000 C=    0.0000
 XYZ=    5.0588   -3.4013    5.6122 Q=   -0.8200 A=    0.0000 R=    0.0000 C=    0.0000
 XYZ=    4.9652   -2.5835    5.0444 Q=    0.4100 A=    0.0000 R=    0.0000 C=    0.0000
 XYZ=    4.2718   -3.4735    6.2250 Q=    0.4100 A=    0.0000 R=    0.0000 C=    0.0000
 XYZ=    4.2162    1.6531    6.4112 Q=   -0.8200 A=    0.0000 R=    0.0000 C=    0.0000
 XYZ=    4.7214    1.6927    7.2733 Q=    0.4100 A=    0.0000 R=    0.0000 C=    0.0000
 XYZ=    3.9021    2.5704    6.1665 Q=    0.4100 A=    0.0000 R=    0.0000 C=    0.0000
 XYZ=   -1.2489    5.1411   -6.4501 Q=   -0.8200 A=    0.0000 R=    0.0000 C=    0.0000
 XYZ=   -1.5698    4.8455   -5.5503 Q=    0.4100 A=    0.0000 R=    0.0000 C=    0.0000
 XYZ=   -2.0289    5.2295   -7.0697 Q=    0.4100 A=    0.0000 R=    0.0000 C=    0.0000
 XYZ=    0.1477    6.6466   -2.7015 Q=   -0.8200 A=    0.0000 R=    0.0000 C=    0.0000
 XYZ=   -0.6872    6.3733   -2.2237 Q=    0.4100 A=    0.0000 R=    0.0000 C=    0.0000
 XYZ=    0.2207    6.1405   -3.5609 Q=    0.4100 A=    0.0000 R=    0.0000 C=    0.0000
 XYZ=    4.1265   -6.7420   -0.6242 Q=   -0.8200 A=    0.0000 R=    0.0000 C=    0.0000
 XYZ=    4.9906   -7.2163   -0.4551 Q=    0.4100 A=    0.0000 R=    0.0000 C=    0.0000
 XYZ=    4.2054   -6.1920   -1.4556 Q=    0.4100 A=    0.0000 R=    0.0000 C=    0.0000
 XYZ=    1.8241    6.2410    4.1963 Q=   -0.8200 A=    0.0000 R=    0.0000 C=    0.0000
 XYZ=    1.1968    6.6900    3.5600 Q=    0.4100 A=    0.0000 R=    0.0000 C=    0.0000
 XYZ=    2.5154    5.7344    3.6811 Q=    0.4100 A=    0.0000 R=    0.0000 C=    0.0000
 XYZ=   -5.9492    5.1867    0.6332 Q=   -0.8200 A=    0.0000 R=    0.0000 C=    0.0000
 XYZ=   -5.7359    6.1474    0.4556 Q=    0.4100 A=    0.0000 R=    0.0000 C=    0.0000
 XYZ=   -6.7923    4.9387    0.1558 Q=    0.4100 A=    0.0000 R=    0.0000 C=    0.0000
 XYZ=    6.9422   -0.1560   -4.5342 Q=   -0.8200 A=    0.0000 R=    0.0000 C=    0.0000
 XYZ=    7.3381    0.7622   -4.5523 Q=    0.4100 A=    0.0000 R=    0.0000 C=    0.0000
 XYZ=    7.6625   -0.8260   -4.3547 Q=    0.4100 A=    0.0000 R=    0.0000 C=    0.0000
 XYZ=    1.8393    0.9703   -8.7887 Q=   -0.8200 A=    0.0000 R=    0.0000 C=    0.0000
 XYZ=    1.3769    1.6601   -9.3458 Q=    0.4100 A=    0.0000 R=    0.0000 C=    0.0000
 XYZ=    1.4738    0.0655   -9.0073 Q=    0.4100 A=    0.0000 R=    0.0000 C=    0.0000
 XYZ=    0.5499    5.6781   -4.8846 Q=   -0.8200 A=    0.0000 R=    0.0000 C=    0.0000
 XYZ=   -0.0300    5.4957   -5.6787 Q=    0.4100 A=    0.0000 R=    0.0000 C=    0.0000
 XYZ=    1.5113    5.6253   -5.1549 Q=    0.4100 A=    0.0000 R=    0.0000 C=    0.0000
 XYZ=    6.3128   -0.8683   -6.7114 Q=   -0.8200 A=    0.0000 R=    0.0000 C=    0.0000
 XYZ=    6.3675   -0.5341   -5.7705 Q=    0.4100 A=    0.0000 R=    0.0000 C=    0.0000
 XYZ=    5.4113   -1.2709   -6.8703 Q=    0.4100 A=    0.0000 R=    0.0000 C=    0.0000
 XYZ=    5.0680    1.4212   -7.0239 Q=   -0.8200 A=    0.0000 R=    0.0000 C=    0.0000
 XYZ=    5.7246    2.1172   -6.7332 Q=    0.4100 A=    0.0000 R=    0.0000 C=    0.0000
 XYZ=    5.5285    0.5361   -7.0911 Q=    0.4100 A=    0.0000 R=    0.0000 C=    0.0000
 XYZ=   -5.5198   -4.4105   -4.5503 Q=   -0.8200 A=    0.0000 R=    0.0000 C=    0.0000
 XYZ=   -5.6123   -4.3665   -5.5451 Q=    0.4100 A=    0.0000 R=    0.0000 C=    0.0000
 XYZ=   -6.1391   -3.7482   -4.1285 Q=    0.4100 A=    0.0000 R=    0.0000 C=    0.0000
 XYZ=    0.7617   -1.1756   -9.5014 Q=   -0.8200 A=    0.0000 R=    0.0000 C=    0.0000
 XYZ=    1.2723   -1.9711   -9.8280 Q=    0.4100 A=    0.0000 R=    0.0000 C=    0.0000
 XYZ=   -0.1221   -1.4724   -9.1396 Q=    0.4100 A=    0.0000 R=    0.0000 C=    0.0000
 XYZ=   -8.1889   -1.1811    3.4105 Q=   -0.8200 A=    0.0000 R=    0.0000 C=    0.0000
 XYZ=   -7.7339   -1.7219    2.7030 Q=    0.4100 A=    0.0000 R=    0.0000 C=    0.0000
 XYZ=   -7.7898   -0.2646    3.4376 Q=    0.4100 A=    0.0000 R=    0.0000 C=    0.0000
 XYZ=   -5.7056   -4.0329    3.9150 Q=   -0.8200 A=    0.0000 R=    0.0000 C=    0.0000
 XYZ=   -6.1878   -3.7696    4.7506 Q=    0.4100 A=    0.0000 R=    0.0000 C=    0.0000
 XYZ=   -5.1693   -4.8594    4.0861 Q=    0.4100 A=    0.0000 R=    0.0000 C=    0.0000
 XYZ=    8.5778   -1.5752   -0.5154 Q=   -0.8200 A=    0.0000 R=    0.0000 C=    0.0000
 XYZ=    8.2042   -0.6859   -0.2517 Q=    0.4100 A=    0.0000 R=    0.0000 C=    0.0000
 XYZ=    9.0291   -1.9940    0.2726 Q=    0.4100 A=    0.0000 R=    0.0000 C=    0.0000
 XYZ=   -3.2551    2.7548   -7.2466 Q=   -0.8200 A=    0.0000 R=    0.0000 C=    0.0000
 XYZ=   -4.1555    2.3468   -7.0953 Q=    0.4100 A=    0.0000 R=    0.0000 C=    0.0000
 XYZ=   -3.3456    3.7489   -7.3074 Q=    0.4100 A=    0.0000 R=    0.0000 C=    0.0000
 XYZ=    3.0045    5.5935   -5.3851 Q=   -0.8200 A=    0.0000 R=    0.0000 C=    0.0000
 XYZ=    3.7202    5.0853   -4.9060 Q=    0.4100 A=    0.0000 R=    0.0000 C=    0.0000
 XYZ=    3.4172    6.3438   -5.9015 Q=    0.4100 A=    0.0000 R=    0.0000 C=    0.0000
 XYZ=    3.9695    3.9386    6.0575 Q=   -0.8200 A=    0.0000 R=    0.0000 C=    0.0000
 XYZ=    4.5629    4.5308    6.6028 Q=    0.4100 A=    0.0000 R=    0.0000 C=    0.0000
 XYZ=    3.0187    4.2288    6.1658 Q=    0.4100 A=    0.0000 R=    0.0000 C=    0.0000
 XYZ=   -5.8155    4.5092    4.5917 Q=   -0.8200 A=    0.0000 R=    0.0000 C=    0.0000
 XYZ=   -6.5573    5.1177    4.3098 Q=    0.4100 A=    0.0000 R=    0.0000 C=    0.0000
 XYZ=   -6.1236    3.9385    5.3529 Q=    0.4100 A=    0.0000 R=    0.0000 C=    0.0000
 XYZ=    1.9597    4.7313    6.2651 Q=   -0.8200 A=    0.0000 R=    0.0000 C=    0.0000
 XYZ=    1.7248    5.3874    5.5478 Q=    0.4100 A=    0.0000 R=    0.0000 C=    0.0000
 XYZ=    1.2639    4.7590    6.9829 Q=    0.4100 A=    0.0000 R=    0.0000 C=    0.0000
 XYZ=    6.6499   -6.0583   -1.8334 Q=   -0.8200 A=    0.0000 R=    0.0000 C=    0.0000
 XYZ=    5.8542   -5.5466   -2.1574 Q=    0.4100 A=    0.0000 R=    0.0000 C=    0.0000
 XYZ=    7.3354   -6.1038   -2.5601 Q=    0.4100 A=    0.0000 R=    0.0000 C=    0.0000
 XYZ=    8.3984   -2.1264   -3.5491 Q=   -0.8200 A=    0.0000 R=    0.0000 C=    0.0000
 XYZ=    9.3159   -2.0155   -3.1670 Q=    0.4100 A=    0.0000 R=    0.0000 C=    0.0000
 XYZ=    7.7845   -2.4816   -2.8442 Q=    0.4100 A=    0.0000 R=    0.0000 C=    0.0000
 XYZ=   -2.4270   -5.4557    5.6996 Q=   -0.8200 A=    0.0000 R=    0.0000 C=    0.0000
 XYZ=   -1.5752   -5.2939    5.2013 Q=    0.4100 A=    0.0000 R=    0.0000 C=    0.0000
 XYZ=   -2.2721   -6.1420    6.4103 Q=    0.4100 A=    0.0000 R=    0.0000 C=    0.0000
 XYZ=    5.3326    4.3360   -4.3542 Q=   -0.8200 A=    0.0000 R=    0.0000 C=    0.0000
 XYZ=    6.0063    5.0750   -4.3556 Q=    0.4100 A=    0.0000 R=    0.0000 C=    0.0000
 XYZ=    5.6192    3.6225   -4.9936 Q=    0.4100 A=    0.0000 R=    0.0000 C=    0.0000
 XYZ=   -6.6905   -4.7033    1.8120 Q=   -0.8200 A=    0.0000 R=    0.0000 C=    0.0000
 XYZ=   -6.1180   -5.3472    1.3044 Q=    0.4100 A=    0.0000 R=    0.0000 C=    0.0000
 XYZ=   -6.2346   -4.4540    2.6665 Q=    0.4100 A=    0.0000 R=    0.0000 C=    0.0000
 XYZ=   -1.6083    7.9491    0.0523 Q=   -0.8200 A=    0.0000 R=    0.0000 C=    0.0000
 XYZ=   -0.8430    8.5928    0.0468 Q=    0.4100 A=    0.0000 R=    0.0000 C=    0.0000
 XYZ=   -1.5900    7.4168    0.8987 Q=    0.4100 A=    0.0000 R=    0.0000 C=    0.0000
 XYZ=   -5.9770   -5.6979   -2.1474 Q=   -0.8200 A=    0.0000 R=    0.0000 C=    0.0000
 XYZ=   -6.9658   -5.6951   -1.9977 Q=    0.4100 A=    0.0000 R=    0.0000 C=    0.0000
 XYZ=   -5.7665   -5.2069   -2.9928 Q=    0.4100 A=    0.0000 R=    0.0000 C=    0.0000
 XYZ=    0.3641    4.1616   -8.3352 Q=   -0.8200 A=    0.0000 R=    0.0000 C=    0.0000
 XYZ=   -0.3402    4.3999   -7.6664 Q=    0.4100 A=    0.0000 R=    0.0000 C=    0.0000
 XYZ=    1.2570    4.1400   -7.8856 Q=    0.4100 A=    0.0000 R=    0.0000 C=    0.0000
 XYZ=    1.0038   -4.1473    7.4969 Q=   -0.8200 A=    0.0000 R=    0.0000 C=    0.0000
 XYZ=    1.8551   -3.6528    7.3213 Q=    0.4100 A=    0.0000 R=    0.0000 C=    0.0000
 XYZ=    0.2359   -3.5072    7.4745 Q=    0.4100 A=    0.0000 R=    0.0000 C=    0.0000
 XYZ=    1.0375    1.9323    8.7543 Q=   -0.8200 A=    0.0000 R=    0.0000 C=    0.0000
 XYZ=    1.4376    1.1146    8.3403 Q=    0.4100 A=    0.0000 R=    0.0000 C=    0.0000
 XYZ=    0.1064    1.7304    9.0582 Q=    0.4100 A=    0.0000 R=    0.0000 C=    0.0000
 XYZ=    8.6678    2.6616   -0.6385 Q=   -0.8200 A=    0.0000 R=    0.0000 C=    0.0000
 XYZ=    8.2237    1.8146   -0.3463 Q=    0.4100 A=    0.0000 R=    0.0000 C=    0.0000
 XYZ=    9.1575    3.0650    0.1345 Q=    0.4100 A=    0.0000 R=    0.0000 C=    0.0000
 XYZ=    3.8982   -5.8825   -6.9748 Q=   -0.8200 A=    0.0000 R=    0.0000 C=    0.0000
 XYZ=    4.4641   -6.0034   -7.7904 Q=    0.4100 A=    0.0000 R=    0.0000 C=    0.0000
 XYZ=    4.2578   -5.1257   -6.4289 Q=    0.4100 A=    0.0000 R=    0.0000 C=    0.0000
 XYZ=    2.2384    7.7240    0.8931 Q=   -0.8200 A=    0.0000 R=    0.0000 C=    0.0000
 XYZ=    1.8138    7.7562    1.7980 Q=    0.4100 A=    0.0000 R=    0.0000 C=    0.0000
 XYZ=    1.7683    7.0456    0.3284 Q=    0.4100 A=    0.0000 R=    0.0000 C=    0.0000
 XYZ=    0.6722    7.8329    2.7653 Q=   -0.8200 A=    0.0000 R=    0.0000 C=    0.0000
 XYZ=    0.3497    8.7170    3.1035 Q=    0.4100 A=    0.0000 R=    0.0000 C=    0.0000
 XYZ=   -0.0629    7.3813    2.2596 Q=    0.4100 A=    0.0000 R=    0.0000 C=    0.0000
 XYZ=   -7.7356    4.5673   -0.8688 Q=   -0.8200 A=    0.0000 R=    0.0000 C=    0.0000
 XYZ=   -7.7565    5.4895   -1.2552 Q=    0.4100 A=    0.0000 R=    0.0000 C=    0.0000
 XYZ=   -7.6145    3.9006   -1.6042 Q=    0.4100 A=    0.0000 R=    0.0000 C=    0.0000
 XYZ=    7.3726    1.4613    4.6411 Q=   -0.8200 A=    0.0000 R=    0.0000 C=    0.0000
 XYZ=    6.9887    1.8879    3.8222 Q=    0.4100 A=    0.0000 R=    0.0000 C=    0.0000
 XYZ=    6.7396    0.7666    4.9829 Q=    0.4100 A=    0.0000 R=    0.0000 C=    0.0000
 XYZ=   -1.2808   -6.6956    2.8965 Q=   -0.8200 A=    0.0000 R=    0.0000 C=    0.0000
 XYZ=   -0.7542   -7.2627    2.2631 Q=    0.4100 A=    0.0000 R=    0.0000 C=    0.0000
 XYZ=   -2.2546   -6.7733    2.6826 Q=    0.4100 A=    0.0000 R=    0.0000 C=    0.0000
 XYZ=   -5.3398   -6.1818    0.4126 Q=   -0.8200 A=    0.0000 R=    0.0000 C=    0.0000
 XYZ=   -5.5016   -5.8257   -0.5078 Q=    0.4100 A=    0.0000 R=    0.0000 C=    0.0000
 XYZ=   -5.3247   -7.1814    0.3852 Q=    0.4100 A=    0.0000 R=    0.0000 C=    0.0000
 XYZ=   -2.4395    0.0971   -9.7071 Q=   -0.8200 A=    0.0000 R=    0.0000 C=    0.0000
 XYZ=   -2.0516   -0.6950   -9.2357 Q=    0.4100 A=    0.0000 R=    0.0000 C=    0.0000
 XYZ=   -3.3881   -0.0959   -9.9579 Q=    0.4100 A=    0.0000 R=    0.0000 C=    0.0000
 XYZ=    8.8182   -0.0586    2.7103 Q=   -0.8200 A=    0.0000 R=    0.0000 C=    0.0000
 XYZ=    8.7951   -0.0316    3.7097 Q=    0.4100 A=    0.0000 R=    0.0000 C=    0.0000
 XYZ=    7.8857   -0.1360    2.3574 Q=    0.4100 A=    0.0000 R=    0.0000 C=    0.0000
 XYZ=   -8.5863    4.1458    2.8311 Q=   -0.8200 A=    0.0000 R=    0.0000 C=    0.0000
 XYZ=   -8.0268    3.3501    2.5991 Q=    0.4100 A=    0.0000 R=    0.0000 C=    0.0000
 XYZ=   -9.5036    3.8440    3.0909 Q=    0.4100 A=    0.0000 R=    0.0000 C=    0.0000
 XYZ=   -6.4648    3.5980   -6.3492 Q=   -0.8200 A=    0.0000 R=    0.0000 C=    0.0000
 XYZ=   -6.1013    4.1265   -7.1164 Q=    0.4100 A=    0.0000 R=    0.0000 C=    0.0000
 XYZ=   -6.0767    2.6765   -6.3657 Q=    0.4100 A=    0.0000 R=    0.0000 C=    0.0000
 XYZ=    4.3199   -2.7510   -9.4398 Q=   -0.8200 A=    0.0000 R=    0.0000 C=    0.0000
 XYZ=    4.3325   -2.4663   -8.4813 Q=    0.4100 A=    0.0000 R=    0.0000 C=    0.0000
 XYZ=    5.2118   -3.1299   -9.6867 Q=    0.4100 A=    0.0000 R=    0.0000 C=    0.0000
 XYZ=   -9.8140   -0.1622   -0.1126 Q=   -0.8200 A=    0.0000 R=    0.0000 C=    0.0000
 XYZ=   -9.9898    0.8145    0.0110 Q=    0.4100 A=    0.0000 R=    0.0000 C=    0.0000
 XYZ=   -8.8292   -0.3160   -0.1936 Q=    0.4100 A=    0.0000 R=    0.0000 C=    0.0000
 XYZ=   -6.7904    3.2719    6.5335 Q=   -0.8200 A=    0.0000 R=    0.0000 C=    0.0000
 XYZ=   -6.7401    3.3378    7.5301 Q=    0.4100 A=    0.0000 R=    0.0000 C=    0.0000
 XYZ=   -6.5367    2.3479    6.2474 Q=    0.4100 A=    0.0000 R=    0.0000 C=    0.0000
 XYZ=   -4.7071   -6.6323   -5.0336 Q=   -0.8200 A=    0.0000 R=    0.0000 C=    0.0000
 XYZ=   -4.6052   -5.7118   -4.6562 Q=    0.4100 A=    0.0000 R=    0.0000 C=    0.0000
 XYZ=   -5.0503   -7.2474   -4.3238 Q=    0.4100 A=    0.0000 R=    0.0000 C=    0.0000
 XYZ=   -3.4962   -6.9105    2.2578 Q=   -0.8200 A=    0.0000 R=    0.0000 C=    0.0000
 XYZ=   -3.3500   -7.8683    2.0100 Q=    0.4100 A=    0.0000 R=    0.0000 C=    0.0000
 XYZ=   -4.1268   -6.4900    1.6054 Q=    0.4100 A=    0.0000 R=    0.0000 C=    0.0000
 XYZ=    5.2609   -6.2733    3.2031 Q=   -0.8200 A=    0.0000 R=    0.0000 C=    0.0000
 XYZ=    5.0299   -6.1239    2.2417 Q=    0.4100 A=    0.0000 R=    0.0000 C=    0.0000
 XYZ=    4.4280   -6.4752    3.7185 Q=    0.4100 A=    0.0000 R=    0.0000 C=    0.0000
 XYZ=    4.2413    6.5439    0.8866 Q=   -0.8200 A=    0.0000 R=    0.0000 C=    0.0000
 XYZ=    3.4583    7.1615    0.9611 Q=    0.4100 A=    0.0000 R=    0.0000 C=    0.0000
 XYZ=    5.0598    6.9999    1.2362 Q=    0.4100 A=    0.0000 R=    0.0000 C=    0.0000
 XYZ=   -4.2908   -5.9745    4.3540 Q=   -0.8200 A=    0.0000 R=    0.0000 C=    0.0000
 XYZ=   -3.5128   -5.7183    4.9277 Q=    0.4100 A=    0.0000 R=    0.0000 C=    0.0000
 XYZ=   -3.9588   -6.4112    3.5179 Q=    0.4100 A=    0.0000 R=    0.0000 C=    0.0000
 XYZ=    7.3101    4.3380   -1.3459 Q=   -0.8200 A=    0.0000 R=    0.0000 C=    0.0000
 XYZ=    7.9216    3.6761   -0.9125 Q=    0.4100 A=    0.0000 R=    0.0000 C=    0.0000
 XYZ=    7.4398    5.2363   -0.9260 Q=    0.4100 A=    0.0000 R=    0.0000 C=    0.0000
 XYZ=   -4.7504    5.9356    6.3345 Q=   -0.8200 A=    0.0000 R=    0.0000 C=    0.0000
 XYZ=   -5.5304    6.3788    6.7762 Q=    0.4100 A=    0.0000 R=    0.0000 C=    0.0000
 XYZ=   -5.0732    5.3775    5.5700 Q=    0.4100 A=    0.0000 R=    0.0000 C=    0.0000
 XYZ=    1.2837   -5.9999    5.8426 Q=   -0.8200 A=    0.0000 R=    0.0000 C=    0.0000
 XYZ=    0.6168   -6.7287    5.9981 Q=    0.4100 A=    0.0000 R=    0.0000 C=    0.0000
 XYZ=    1.2021   -5.3137    6.5654 Q=    0.4100 A=    0.0000 R=    0.0000 C=    0.0000
 XYZ=   -1.5677   -2.1127    9.2838 Q=   -0.8200 A=    0.0000 R=    0.0000 C=    0.0000
 XYZ=   -1.0024   -2.0159    8.4645 Q=    0.4100 A=    0.0000 R=    0.0000 C=    0.0000
 XYZ=   -1.0326   -2.5469   10.0085 Q=    0.4100 A=    0.0000 R=    0.0000 C=    0.0000
 XYZ=    2.9642   -6.6551    4.0816 Q=   -0.8200 A=    0.0000 R=    0.0000 C=    0.0000
 XYZ=    2.3665   -6.3765    4.8334 Q=    0.4100 A=    0.0000 R=    0.0000 C=    0.0000
 XYZ=    2.7235   -7.5809    3.7901 Q=    0.4100 A=    0.0000 R=    0.0000 C=    0.0000
 XYZ=   -3.4515    8.1111   -3.3365 Q=   -0.8200 A=    0.0000 R=    0.0000 C=    0.0000
 XYZ=   -3.5457    8.3425   -2.3681 Q=    0.4100 A=    0.0000 R=    0.0000 C=    0.0000
 XYZ=   -3.4278    7.1168   -3.4407 Q=    0.4100 A=    0.0000 R=    0.0000 C=    0.0000
 XYZ=    1.7312   -6.0161   -8.0594 Q=   -0.8200 A=    0.0000 R=    0.0000 C=    0.0000
 XYZ=    1.4481   -6.9098   -7.7113 Q=    0.4100 A=    0.0000 R=    0.0000 C=    0.0000
 XYZ=    2.5638   -5.7237   -7.5888 Q=    0.4100 A=    0.0000 R=    0.0000 C=    0.0000
 XYZ=    0.0435   -8.1439    1.6822 Q=   -0.8200 A=    0.0000 R=    0.0000 C=    0.0000
 XYZ=    0.7517   -7.6708    1.1580 Q=    0.4100 A=    0.0000 R=    0.0000 C=    0.0000
 XYZ=   -0.5646   -8.6318    1.0560 Q=    0.4100 A=    0.0000 R=    0.0000 C=    0.0000
 XYZ=    0.6843    4.2431    8.2433 Q=   -0.8200 A=    0.0000 R=    0.0000 C=    0.0000
 XYZ=    1.0312    4.7374    9.0404 Q=    0.4100 A=    0.0000 R=    0.0000 C=    0.0000
 XYZ=    0.9413    3.2791    8.3112 Q=    0.4100 A=    0.0000 R=    0.0000 C=    0.0000
 XYZ=   -1.2213   -6.4503   -7.6489 Q=   -0.8200 A=    0.0000 R=    0.0000 C=    0.0000
 XYZ=   -0.3335   -6.9084   -7.6935 Q=    0.4100 A=    0.0000 R=    0.0000 C=    0.0000
 XYZ=   -1.5969   -6.5404   -6.7265 Q=    0.4100 A=    0.0000 R=    0.0000 C=    0.0000
 XYZ=   -6.7873   -3.5084    5.9452 Q=   -0.8200 A=    0.0000 R=    0.0000 C=    0.0000
 XYZ=   -7.5862   -3.0002    5.6237 Q=    0.4100 A=    0.0000 R=    0.0000 C=    0.0000
 XYZ=   -6.1345   -2.8751    6.3609 Q=    0.4100 A=    0.0000 R=    0.0000 C=    0.0000
 XYZ=    6.4434   -4.2367    3.8163 Q=   -0.8200 A=    0.0000 R=    0.0000 C=    0.0000
 XYZ=    6.0892   -3.9983    4.7206 Q=    0.4100 A=    0.0000 R=    0.0000 C=    0.0000
 XYZ=    6.0427   -5.1035    3.5194 Q=    0.4100 A=    0.0000 R=    0.0000 C=    0.0000
 XYZ=    6.5810    2.9864   -6.1177 Q=   -0.8200 A=    0.0000 R=    0.0000 C=    0.0000
 XYZ=    6.9029    3.8656   -6.4690 Q=    0.4100 A=    0.0000 R=    0.0000 C=    0.0000
 XYZ=    7.2296    2.6409   -5.4395 Q=    0.4100 A=    0.0000 R=    0.0000 C=    0.0000
 XYZ=   -3.1690    2.3334   -9.7138 Q=   -0.8200 A=    0.0000 R=    0.0000 C=    0.0000
 XYZ=   -2.9615    2.7102   -8.8110 Q=    0.4100 A=    0.0000 R=    0.0000 C=    0.0000
 XYZ=   -2.8145    1.4004   -9.7750 Q=    0.4100 A=    0.0000 R=    0.0000 C=    0.0000
 XYZ=    8.0601   -5.0033    0.0890 Q=   -0.8200 A=    0.0000 R=    0.0000 C=    0.0000
 XYZ=    9.0409   -5.0592   -0.0982 Q=    0.4100 A=    0.0000 R=    0.0000 C=    0.0000
 XYZ=    7.5534   -5.4376   -0.6557 Q=    0.4100 A=    0.0000 R=    0.0000 C=    0.0000
 XYZ=   -7.6356   -0.4990    6.8859 Q=   -0.8200 A=    0.0000 R=    0.0000 C=    0.0000
 XYZ=   -8.2341   -1.2098    6.5164 Q=    0.4100 A=    0.0000 R=    0.0000 C=    0.0000
 XYZ=   -6.7021   -0.8514    6.9538 Q=    0.4100 A=    0.0000 R=    0.0000 C=    0.0000
 XYZ=    3.9754   -1.1431    8.4066 Q=   -0.8200 A=    0.0000 R=    0.0000 C=    0.0000
 XYZ=    4.1907   -1.2369    9.3786 Q=    0.4100 A=    0.0000 R=    0.0000 C=    0.0000
 XYZ=    4.8175   -1.2077    7.8711 Q=    0.4100 A=    0.0000 R=    0.0000 C=    0.0000
 XYZ=    2.7753   -7.6211   -5.8788 Q=   -0.8200 A=    0.0000 R=    0.0000 C=    0.0000
 XYZ=    3.2273   -6.8575   -6.3397 Q=    0.4100 A=    0.0000 R=    0.0000 C=    0.0000
 XYZ=    3.4520   -8.1469   -5.3633 Q=    0.4100 A=    0.0000 R=    0.0000 C=    0.0000
 XYZ=    8.1409    2.0674   -4.5143 Q=   -0.8200 A=    0.0000 R=    0.0000 C=    0.0000
 XYZ=    8.3907    2.9079   -4.0335 Q=    0.4100 A=    0.0000 R=    0.0000 C=    0.0000
 XYZ=    8.8279    1.3634   -4.3339 Q=    0.4100 A=    0.0000 R=    0.0000 C=    0.0000
 XYZ=    1.4347    2.8599  -10.2202 Q=   -0.8200 A=    0.0000 R=    0.0000 C=    0.0000
 XYZ=    0.8922    3.3224   -9.5189 Q=    0.4100 A=    0.0000 R=    0.0000 C=    0.0000
 XYZ=    2.3619    3.2345  -10.2251 Q=    0.4100 A=    0.0000 R=    0.0000 C=    0.0000
 XYZ=    0.0625    8.8540   -2.5054 Q=   -0.8200 A=    0.0000 R=    0.0000 C=    0.0000
 XYZ=   -0.7076    9.1016   -3.0934 Q=    0.4100 A=    0.0000 R=    0.0000 C=    0.0000
 XYZ=    0.1806    7.8610   -2.5116 Q=    0.4100 A=    0.0000 R=    0.0000 C=    0.0000
 XYZ=   -1.4030    6.6686    6.3277 Q=   -0.8200 A=    0.0000 R=    0.0000 C=    0.0000
 XYZ=   -2.1632    7.1901    5.9403 Q=    0.4100 A=    0.0000 R=    0.0000 C=    0.0000
 XYZ=   -1.7567    5.9995    6.9814 Q=    0.4100 A=    0.0000 R=    0.0000 C=    0.0000
 XYZ=   10.3044   -1.7710   -2.1662 Q=   -0.8200 A=    0.0000 R=    0.0000 C=    0.0000
 XYZ=    9.4501   -1.4962   -1.7248 Q=    0.4100 A=    0.0000 R=    0.0000 C=    0.0000
 XYZ=   10.9809   -2.0034   -1.4673 Q=    0.4100 A=    0.0000 R=    0.0000 C=    0.0000
 XYZ=   -3.5398   -2.7078    8.3474 Q=   -0.8200 A=    0.0000 R=    0.0000 C=    0.0000
 XYZ=   -2.7323   -2.2700    8.7428 Q=    0.4100 A=    0.0000 R=    0.0000 C=    0.0000
 XYZ=   -3.7677   -3.5258    8.8754 Q=    0.4100 A=    0.0000 R=    0.0000 C=    0.0000
 XYZ=   -5.8031   -3.9014   -6.8629 Q=   -0.8200 A=    0.0000 R=    0.0000 C=    0.0000
 XYZ=   -5.5506   -4.4131   -7.6842 Q=    0.4100 A=    0.0000 R=    0.0000 C=    0.0000
 XYZ=   -6.4594   -3.1866   -7.1043 Q=    0.4100 A=    0.0000 R=    0.0000 C=    0.0000
 XYZ=   -5.5839    7.4913    0.2538 Q=   -0.8200 A=    0.0000 R=    0.0000 C=    0.0000
 XYZ=   -4.6916    7.7859   -0.0883 Q=    0.4100 A=    0.0000 R=    0.0000 C=    0.0000
 XYZ=   -5.9704    8.2067    0.8360 Q=    0.4100 A=    0.0000 R=    0.0000 C=    0.0000
 XYZ=  -10.0738    1.0778    3.8426 Q=   -0.8200 A=    0.0000 R=    0.0000 C=    0.0000
 XYZ=   -9.0852    1.1586    3.9703 Q=    0.4100 A=    0.0000 R=    0.0000 C=    0.0000
 XYZ=  -10.2665    0.3503    3.1842 Q=    0.4100 A=    0.0000 R=    0.0000 C=    0.0000
 XYZ=    8.5346    3.9648    3.1272 Q=   -0.8200 A=    0.0000 R=    0.0000 C=    0.0000
 XYZ=    9.0432    3.7278    3.9551 Q=    0.4100 A=    0.0000 R=    0.0000 C=    0.0000
 XYZ=    7.6641    3.4726    3.1185 Q=    0.4100 A=    0.0000 R=    0.0000 C=    0.0000
 XYZ=    7.4880   -2.5600   -7.8532 Q=   -0.8200 A=    0.0000 R=    0.0000 C=    0.0000
 XYZ=    6.8957   -1.9156   -7.3695 Q=    0.4100 A=    0.0000 R=    0.0000 C=    0.0000
 XYZ=    7.3728   -3.4744   -7.4650 Q=    0.4100 A=    0.0000 R=    0.0000 C=    0.0000
 XYZ=   -0.6354    0.4149  -11.2025 Q=   -0.8200 A=    0.0000 R=    0.0000 C=    0.0000
 XYZ=    0.0883   -0.0102  -10.6588 Q=    0.4100 A=    0.0000 R=    0.0000 C=    0.0000
 XYZ=   -1.5138    0.2949  -10.7399 Q=    0.4100 A=    0.0000 R=    0.0000 C=    0.0000
 XYZ=   -9.3764    3.8584    0.6165 Q=   -0.8200 A=    0.0000 R=    0.0000 C=    0.0000
 XYZ=   -8.7123    4.0142   -0.1147 Q=    0.4100 A=    0.0000 R=    0.0000 C=    0.0000
 XYZ=   -9.0709    4.3216    1.4485 Q=    0.4100 A=    0.0000 R=    0.0000 C=    0.0000
 XYZ=   -3.7599    8.6139   -0.7946 Q=   -0.8200 A=    0.0000 R=    0.0000 C=    0.0000
 XYZ=   -3.9489    9.5675   -0.5604 Q=    0.4100 A=    0.0000 R=    0.0000 C=    0.0000
 XYZ=   -2.8851    8.3397   -0.3950 Q=    0.4100 A=    0.0000 R=    0.0000 C=    0.0000
 XYZ=    7.0601    5.7472    3.4492 Q=   -0.8200 A=    0.0000 R=    0.0000 C=    0.0000
 XYZ=    6.2641    5.3188    3.8769 Q=    0.4100 A=    0.0000 R=    0.0000 C=    0.0000
 XYZ=    7.7220    5.0418    3.1955 Q=    0.4100 A=    0.0000 R=    0.0000 C=    0.0000
 XYZ=   -6.3161   -0.1944   -7.9229 Q=   -0.8200 A=    0.0000 R=    0.0000 C=    0.0000
 XYZ=   -6.8454   -1.0379   -7.8310 Q=    0.4100 A=    0.0000 R=    0.0000 C=    0.0000
 XYZ=   -5.4903   -0.3757   -8.4568 Q=    0.4100 A=    0.0000 R=    0.0000 C=    0.0000
 XYZ=  -10.2431   -0.8820    2.2241 Q=   -0.8200 A=    0.0000 R=    0.0000 C=    0.0000
 XYZ=   -9.9796   -0.6011    1.3012 Q=    0.4100 A=    0.0000 R=    0.0000 C=    0.0000
 XYZ=   -9.4221   -1.0136    2.7796 Q=    0.4100 A=    0.0000 R=    0.0000 C=    0.0000
 XYZ=    1.9362   -3.1365  -10.2884 Q=   -0.8200 A=    0.0000 R=    0.0000 C=    0.0000
 XYZ=    2.8741   -3.1239   -9.9415 Q=    0.4100 A=    0.0000 R=    0.0000 C=    0.0000
 XYZ=    1.9114   -2.7194  -11.1969 Q=    0.4100 A=    0.0000 R=    0.0000 C=    0.0000
 XYZ=   -1.7792    3.8721    8.6357 Q=   -0.8200 A=    0.0000 R=    0.0000 C=    0.0000
 XYZ=   -0.8442    4.2161    8.5492 Q=    0.4100 A=    0.0000 R=    0.0000 C=    0.0000
 XYZ=   -1.7614    2.9551    9.0341 Q=    0.4100 A=    0.0000 R=    0.0000 C=    0.0000
 XYZ=   -7.4675    5.9477    3.9308 Q=   -0.8200 A=    0.0000 R=    0.0000 C=    0.0000
 XYZ=   -7.9391    5.7935    4.7991 Q=    0.4100 A=    0.0000 R=    0.0000 C=    0.0000
 XYZ=   -7.8272    5.3202    3.2402 Q=    0.4100 A=    0.0000 R=    0.0000 C=    0.0000
 XYZ=    0.5393    7.8616    5.8678 Q=   -0.8200 A=    0.0000 R=    0.0000 C=    0.0000
 XYZ=    1.2142    7.3517    5.3343 Q=    0.4100 A=    0.0000 R=    0.0000 C=    0.0000
 XYZ=   -0.2321    7.2643    6.0876 Q=    0.4100 A=    0.0000 R=    0.0000 C=    0.0000
 XYZ=   -2.6732   -7.4204   -5.8597 Q=   -0.8200 A=    0.0000 R=    0.0000 C=    0.0000
 XYZ=   -2.9168   -7.7878   -6.7573 Q=    0.4100 A=    0.0000 R=    0.0000 C=    0.0000
 XYZ=   -3.5027   -7.1324   -5.3811 Q=    0.4100 A=    0.0000 R=    0.0000 C=    0.0000
 XYZ=   -3.4029    7.7193    5.2411 Q=   -0.8200 A=    0.0000 R=    0.0000 C=    0.0000
 XYZ=   -4.0258    7.0207    5.5931 Q=    0.4100 A=    0.0000 R=    0.0000 C=    0.0000
 XYZ=   -3.7832    8.6264    5.4216 Q=    0.4100 A=    0.0000 R=    0.0000 C=    0.0000
 XYZ=    8.6375    4.0059   -3.4109 Q=   -0.8200 A=    0.0000 R=    0.0000 C=    0.0000
 XYZ=    8.2722    4.1818   -2.4968 Q=    0.4100 A=    0.0000 R=    0.0000 C=    0.0000
 XYZ=    9.6222    3.8424   -3.3504 Q=    0.4100 A=    0.0000 R=    0.0000 C=    0.0000
 XYZ=   -5.5985   -7.7941   -3.1440 Q=   -0.8200 A=    0.0000 R=    0.0000 C=    0.0000
 XYZ=   -5.6753   -7.0062   -2.5330 Q=    0.4100 A=    0.0000 R=    0.0000 C=    0.0000
 XYZ=   -6.5088   -8.1681   -3.3214 Q=    0.4100 A=    0.0000 R=    0.0000 C=    0.0000
 XYZ=    0.8520   -5.2265  -10.1222 Q=   -0.8200 A=    0.0000 R=    0.0000 C=    0.0000
 XYZ=    1.3065   -4.4207  -10.5019 Q=    0.4100 A=    0.0000 R=    0.0000 C=    0.0000
 XYZ=    1.1996   -5.4021   -9.2011 Q=    0.4100 A=    0.0000 R=    0.0000 C=    0.0000
 XYZ=    6.1531   -7.6599   -0.3139 Q=   -0.8200 A=    0.0000 R=    0.0000 C=    0.0000
 XYZ=    6.8722   -8.1298    0.1981 Q=    0.4100 A=    0.0000 R=    0.0000 C=    0.0000
 XYZ=    6.5686   -7.0494   -0.9881 Q=    0.4100 A=    0.0000 R=    0.0000 C=    0.0000
 XYZ=    8.3495   -4.9666    2.7587 Q=   -0.8200 A=    0.0000 R=    0.0000 C=    0.0000
 XYZ=    7.6244   -4.6654    3.3780 Q=    0.4100 A=    0.0000 R=    0.0000 C=    0.0000
 XYZ=    8.1603   -4.6312    1.8358 Q=    0.4100 A=    0.0000 R=    0.0000 C=    0.0000
 XYZ=   -0.6442   -8.6705    4.1664 Q=   -0.8200 A=    0.0000 R=    0.0000 C=    0.0000
 XYZ=   -0.2416   -9.1139    3.3656 Q=    0.4100 A=    0.0000 R=    0.0000 C=    0.0000
 XYZ=   -0.9573   -7.7539    3.9178 Q=    0.4100 A=    0.0000 R=    0.0000 C=    0.0000
 XYZ=   -9.0251   -2.2287    5.6397 Q=   -0.8200 A=    0.0000 R=    0.0000 C=    0.0000
 XYZ=   -8.8033   -1.7424    4.7945 Q=    0.4100 A=    0.0000 R=    0.0000 C=    0.0000
 XYZ=   -9.7133   -2.9291    5.4504 Q=    0.4100 A=    0.0000 R=    0.0000 C=    0.0000
 XYZ=    9.6843   -2.0853    1.6860 Q=   -0.8200 A=    0.0000 R=    0.0000 C=    0.0000
 XYZ=    9.7649   -2.8251    2.3540 Q=    0.4100 A=    0.0000 R=    0.0000 C=    0.0000
 XYZ=    9.3103   -1.2724    2.1325 Q=    0.4100 A=    0.0000 R=    0.0000 C=    0.0000
 XYZ=   10.2981    1.6072   -1.9463 Q=   -0.8200 A=    0.0000 R=    0.0000 C=    0.0000
 XYZ=    9.5523    2.0694   -1.4665 Q=    0.4100 A=    0.0000 R=    0.0000 C=    0.0000
 XYZ=   10.8762    1.1310   -1.2837 Q=    0.4100 A=    0.0000 R=    0.0000 C=    0.0000
 XYZ=   -2.6202    8.6743    3.1814 Q=   -0.8200 A=    0.0000 R=    0.0000 C=    0.0000
 XYZ=   -3.2405    8.2686    3.8528 Q=    0.4100 A=    0.0000 R=    0.0000 C=    0.0000
 XYZ=   -3.1055    9.3775    2.6616 Q=    0.4100 A=    0.0000 R=    0.0000 C=    0.0000
 XYZ=    6.1275   -1.1727    7.5532 Q=   -0.8200 A=    0.0000 R=    0.0000 C=    0.0000
 XYZ=    6.6240   -0.6094    8.2136 Q=    0.4100 A=    0.0000 R=    0.0000 C=    0.0000
 XYZ=    6.6278   -2.0248    7.3993 Q=    0.4100 A=    0.0000 R=    0.0000 C=    0.0000
 XYZ=   -9.6750    2.1306   -2.5996 Q=   -0.8200 A=    0.0000 R=    0.0000 C=    0.0000
 XYZ=   -9.8614    2.1666   -1.6178 Q=    0.4100 A=    0.0000 R=    0.0000 C=    0.0000
 XYZ=  -10.3613    1.5581   -3.0484 Q=    0.4100 A=    0.0000 R=    0.0000 C=    0.0000
 XYZ=   -1.3892   -3.9386  -10.2601 Q=   -0.8200 A=    0.0000 R=    0.0000 C=    0.0000
 XYZ=   -0.5338   -4.3878  -10.0019 Q=    0.4100 A=    0.0000 R=    0.0000 C=    0.0000
 XYZ=   -1.3770   -3.7364  -11.2394 Q=    0.4100 A=    0.0000 R=    0.0000 C=    0.0000
 XYZ=   -3.6039    5.5436    8.3840 Q=   -0.8200 A=    0.0000 R=    0.0000 C=    0.0000
 XYZ=   -3.9194    5.6879    7.4461 Q=    0.4100 A=    0.0000 R=    0.0000 C=    0.0000
 XYZ=   -2.8528    4.8834    8.3851 Q=    0.4100 A=    0.0000 R=    0.0000 C=    0.0000
 XYZ=    3.6554   -1.0120  -11.1387 Q=   -0.8200 A=    0.0000 R=    0.0000 C=    0.0000
 XYZ=    3.5498   -0.1500  -10.6429 Q=    0.4100 A=    0.0000 R=    0.0000 C=    0.0000
 XYZ=    4.0250   -1.7077  -10.5226 Q=    0.4100 A=    0.0000 R=    0.0000 C=    0.0000
 XYZ=   -3.3432    5.3868   -7.9311 Q=   -0.8200 A=    0.0000 R=    0.0000 C=    0.0000
 XYZ=   -3.2117    6.1627   -8.5481 Q=    0.4100 A=    0.0000 R=    0.0000 C=    0.0000
 XYZ=   -4.2864    5.0618   -8.0007 Q=    0.4100 A=    0.0000 R=    0.0000 C=    0.0000
 XYZ=    9.6294    0.5102   -3.8776 Q=   -0.8200 A=    0.0000 R=    0.0000 C=    0.0000
 XYZ=    9.9644    0.7984   -2.9805 Q=    0.4100 A=    0.0000 R=    0.0000 C=    0.0000
 XYZ=    9.6909   -0.4852   -3.9524 Q=    0.4100 A=    0.0000 R=    0.0000 C=    0.0000
 XYZ=    0.4372    9.2026   -0.1828 Q=   -0.8200 A=    0.0000 R=    0.0000 C=    0.0000
 XYZ=    0.3851    9.1735   -1.1811 Q=    0.4100 A=    0.0000 R=    0.0000 C=    0.0000
 XYZ=    1.2604    8.7236    0.1220 Q=    0.4100 A=    0.0000 R=    0.0000 C=    0.0000
 XYZ=    0.2122   -4.9857    9.6018 Q=   -0.8200 A=    0.0000 R=    0.0000 C=    0.0000
 XYZ=    0.4765   -4.7468    8.6674 Q=    0.4100 A=    0.0000 R=    0.0000 C=    0.0000
 XYZ=    1.0001   -5.3698   10.0832 Q=    0.4100 A=    0.0000 R=    0.0000 C=    0.0000
 XYZ=   -1.4834    1.8612    9.9160 Q=   -0.8200 A=    0.0000 R=    0.0000 C=    0.0000
 XYZ=   -1.8720    0.9398    9.9036 Q=    0.4100 A=    0.0000 R=    0.0000 C=    0.0000
 XYZ=   -1.2663    2.1186   10.8576 Q=    0.4100 A=    0.0000 R=    0.0000 C=    0.0000
 XYZ=    6.9857   -4.6785   -6.6845 Q=   -0.8200 A=    0.0000 R=    0.0000 C=    0.0000
 XYZ=    7.8100   -5.1217   -6.3322 Q=    0.4100 A=    0.0000 R=    0.0000 C=    0.0000
 XYZ=    6.6856   -5.1458   -7.5162 Q=    0.4100 A=    0.0000 R=    0.0000 C=    0.0000
 XYZ=   -0.7705    5.3788  -10.2066 Q=   -0.8200 A=    0.0000 R=    0.0000 C=    0.0000
 XYZ=   -1.4339    4.7905  -10.6690 Q=    0.4100 A=    0.0000 R=    0.0000 C=    0.0000
 XYZ=   -0.2338    4.8338   -9.5624 Q=    0.4100 A=    0.0000 R=    0.0000 C=    0.0000
 XYZ=    5.4630    2.0622    8.4206 Q=   -0.8200 A=    0.0000 R=    0.0000 C=    0.0000
 XYZ=    6.3937    2.3486    8.1926 Q=    0.4100 A=    0.0000 R=    0.0000 C=    0.0000
 XYZ=    5.1041    2.6453    9.1495 Q=    0.4100 A=    0.0000 R=    0.0000 C=    0.0000
 XYZ=    0.7398   -8.2475   -7.2085 Q=   -0.8200 A=    0.0000 R=    0.0000 C=    0.0000
 XYZ=    0.0895   -8.7709   -6.6579 Q=    0.4100 A=    0.0000 R=    0.0000 C=    0.0000
 XYZ=    1.6069   -8.1703   -6.7164 Q=    0.4100 A=    0.0000 R=    0.0000 C=    0.0000
 XYZ=   -1.5223   -9.5493   -5.1842 Q=   -0.8200 A=    0.0000 R=    0.0000 C=    0.0000
 XYZ=   -1.7552   -8.5770   -5.2063 Q=    0.4100 A=    0.0000 R=    0.0000 C=    0.0000
 XYZ=   -1.7177   -9.9591   -6.0752 Q=    0.4100 A=    0.0000 R=    0.0000 C=    0.0000
 XYZ=   -8.3052   -5.5619   -2.0142 Q=   -0.8200 A=    0.0000 R=    0.0000 C=    0.0000
 XYZ=   -9.0709   -4.9187   -2.0080 Q=    0.4100 A=    0.0000 R=    0.0000 C=    0.0000
 XYZ=   -8.6478   -6.4861   -2.1830 Q=    0.4100 A=    0.0000 R=    0.0000 C=    0.0000
 XYZ=    2.2944    2.2117   10.7801 Q=   -0.8200 A=    0.0000 R=    0.0000 C=    0.0000
 XYZ=    3.2524    2.3742   10.5436 Q=    0.4100 A=    0.0000 R=    0.0000 C=    0.0000
 XYZ=    1.7613    2.0858    9.9435 Q=    0.4100 A=    0.0000 R=    0.0000 C=    0.0000
 XYZ=    8.9710    2.7876    5.4492 Q=   -0.8200 A=    0.0000 R=    0.0000 C=    0.0000
 XYZ=    8.3152    2.1508    5.0436 Q=    0.4100 A=    0.0000 R=    0.0000 C=    0.0000
 XYZ=    9.7236    2.2737    5.8609 Q=    0.4100 A=    0.0000 R=    0.0000 C=    0.0000
 XYZ=   -5.7162   -7.0107    5.9711 Q=   -0.8200 A=    0.0000 R=    0.0000 C=    0.0000
 XYZ=   -5.1391   -6.5654    5.2866 Q=    0.4100 A=    0.0000 R=    0.0000 C=    0.0000
 XYZ=   -6.4762   -6.4064    6.2104 Q=    0.4100 A=    0.0000 R=    0.0000 C=    0.0000
 XYZ=   -8.9081    3.9570   -6.1353 Q=   -0.8200 A=    0.0000 R=    0.0000 C=    0.0000
 XYZ=   -9.2461    4.7171   -6.6904 Q=    0.4100 A=    0.0000 R=    0.0000 C=    0.0000
 XYZ=   -7.9083    3.9477   -6.1565 Q=    0.4100 A=    0.0000 R=    0.0000 C=    0.0000
 XYZ=    7.1874    5.7944   -4.7408 Q=   -0.8200 A=    0.0000 R=    0.0000 C=    0.0000
 XYZ=    7.7025    5.1538   -4.1713 Q=    0.4100 A=    0.0000 R=    0.0000 C=    0.0000
 XYZ=    7.2395    5.5065   -5.6970 Q=    0.4100 A=    0.0000 R=    0.0000 C=    0.0000
 XYZ=   -0.4596   -7.4239    6.1211 Q=   -0.8200 A=    0.0000 R=    0.0000 C=    0.0000
 XYZ=   -1.2920   -7.5069    6.6691 Q=    0.4100 A=    0.0000 R=    0.0000 C=    0.0000
 XYZ=   -0.5436   -7.9883    5.2999 Q=    0.4100 A=    0.0000 R=    0.0000 C=    0.0000
 XYZ=   10.5919    1.3060    1.9774 Q=   -0.8200 A=    0.0000 R=    0.0000 C=    0.0000
 XYZ=    9.8350    0.6753    2.1485 Q=    0.4100 A=    0.0000 R=    0.0000 C=    0.0000
 XYZ=   10.2279    2.2073    1.7423 Q=    0.4100 A=    0.0000 R=    0.0000 C=    0.0000
 XYZ=   -8.1105    5.2407    6.1100 Q=   -0.8200 A=    0.0000 R=    0.0000 C=    0.0000
 XYZ=   -7.6123    4.4184    6.3853 Q=    0.4100 A=    0.0000 R=    0.0000 C=    0.0000
 XYZ=   -7.7744    6.0244    6.6324 Q=    0.4100 A=    0.0000 R=    0.0000 C=    0.0000
 XYZ=   -9.7931    4.0360   -3.9718 Q=   -0.8200 A=    0.0000 R=    0.0000 C=    0.0000
 XYZ=   -9.2569    3.9169   -4.8075 Q=    0.4100 A=    0.0000 R=    0.0000 C=    0.0000
 XYZ=   -9.6605    3.2445   -3.3751 Q=    0.4100 A=    0.0000 R=    0.0000 C=    0.0000
 XYZ=    9.8675   -3.4777   -5.3999 Q=   -0.8200 A=    0.0000 R=    0.0000 C=    0.0000
 XYZ=    9.1558   -2.9659   -4.9186 Q=    0.4100 A=    0.0000 R=    0.0000 C=    0.0000
 XYZ=   10.2836   -2.8944   -6.0975 Q=    0.4100 A=    0.0000 R=    0.0000 C=    0.0000
 XYZ=   -8.2665   -6.6422    2.5233 Q=   -0.8200 A=    0.0000 R=    0.0000 C=    0.0000
 XYZ=   -9.0831   -6.9690    2.0474 Q=    0.4100 A=    0.0000 R=    0.0000 C=    0.0000
 XYZ=   -7.9284   -5.8146    2.0751 Q=    0.4100 A=    0.0000 R=    0.0000 C=    0.0000
 XYZ=   -2.5293   -0.1886   10.2043 Q=   -0.8200 A=    0.0000 R=    0.0000 C=    0.0000
 XYZ=   -2.3096   -1.1468   10.0208 Q=    0.4100 A=    0.0000 R=    0.0000 C=    0.0000
 XYZ=   -3.4442   -0.1270   10.6034 Q=    0.4100 A=    0.0000 R=    0.0000 C=    0.0000
 XYZ=  -10.4136    2.0543   -0.2708 Q=   -0.8200 A=    0.0000 R=    0.0000 C=    0.0000
 XYZ=  -11.4079    1.9711   -0.2032 Q=    0.4100 A=    0.0000 R=    0.0000 C=    0.0000
 XYZ=  -10.1219    2.9145    0.1476 Q=    0.4100 A=    0.0000 R=    0.0000 C=    0.0000
 XYZ=   -1.9350    9.3197   -4.7033 Q=   -0.8200 A=    0.0000 R=    0.0000 C=    0.0000
 XYZ=   -2.4666    8.6449   -4.1912 Q=    0.4100 A=    0.0000 R=    0.0000 C=    0.0000
 XYZ=   -1.1632    8.8668   -5.1496 Q=    0.4100 A=    0.0000 R=    0.0000 C=    0.0000
 XYZ=    7.4175   -7.1174    3.1573 Q=   -0.8200 A=    0.0000 R=    0.0000 C=    0.0000
 XYZ=    7.9513   -6.2791    3.0459 Q=    0.4100 A=    0.0000 R=    0.0000 C=    0.0000
 XYZ=    6.4423   -6.8976    3.1305 Q=    0.4100 A=    0.0000 R=    0.0000 C=    0.0000
 XYZ=   -0.4920    9.5284    4.1736 Q=   -0.8200 A=    0.0000 R=    0.0000 C=    0.0000
 XYZ=   -1.3735    9.1714    3.8645 Q=    0.4100 A=    0.0000 R=    0.0000 C=    0.0000
 XYZ=   -0.2432    9.0969    5.0407 Q=    0.4100 A=    0.0000 R=    0.0000 C=    0.0000
 XYZ=   -5.4919    4.6755   -8.1401 Q=   -0.8200 A=    0.0000 R=    0.0000 C=    0.0000
 XYZ=   -5.9940    5.4542   -8.5161 Q=    0.4100 A=    0.0000 R=    0.0000 C=    0.0000
 XYZ=   -5.4967    3.9251   -8.8011 Q=    0.4100 A=    0.0000 R=    0.0000 C=    0.0000
 XYZ=   -4.8058   -0.4626   -9.9833 Q=   -0.8200 A=    0.0000 R=    0.0000 C=    0.0000
 XYZ=   -5.4751    0.2791   -9.9391 Q=    0.4100 A=    0.0000 R=    0.0000 C=    0.0000
 XYZ=   -5.1989   -1.2370  -10.4791 Q=    0.4100 A=    0.0000 R=    0.0000 C=    0.0000
 XYZ=    7.5614    6.7798   -0.5633 Q=   -0.8200 A=    0.0000 R=    0.0000 C=    0.0000
 XYZ=    6.9380    7.0092   -1.3108 Q=    0.4100 A=    0.0000 R=    0.0000 C=    0.0000
 XYZ=    7.1732    7.0945    0.3029 Q=    0.4100 A=    0.0000 R=    0.0000 C=    0.0000
 XYZ=    6.6373    7.3641    1.7570 Q=   -0.8200 A=    0.0000 R=    0.0000 C=    0.0000
 XYZ=    7.1498    8.2022    1.9439 Q=    0.4100 A=    0.0000 R=    0.0000 C=    0.0000
 XYZ=    6.8577    6.6772    2.4496 Q=    0.4100 A=    0.0000 R=    0.0000 C=    0.0000
 XYZ=   -5.3055    3.1614   -9.6737 Q=   -0.8200 A=    0.0000 R=    0.0000 C=    0.0000
 XYZ=   -5.9157    2.3701   -9.7123 Q=    0.4100 A=    0.0000 R=    0.0000 C=    0.0000
 XYZ=   -4.3555    2.8494   -9.6590 Q=    0.4100 A=    0.0000 R=    0.0000 C=    0.0000
 XYZ=   -7.6415   -5.6073    6.6351 Q=   -0.8200 A=    0.0000 R=    0.0000 C=    0.0000
 XYZ=   -8.3422   -5.8859    5.9782 Q=    0.4100 A=    0.0000 R=    0.0000 C=    0.0000
 XYZ=   -7.2799   -4.7114    6.3767 Q=    0.4100 A=    0.0000 R=    0.0000 C=    0.0000
 XYZ=   -5.3477   -7.1218   -7.2906 Q=   -0.8200 A=    0.0000 R=    0.0000 C=    0.0000
 XYZ=   -4.5698   -7.6460   -7.6374 Q=    0.4100 A=    0.0000 R=    0.0000 C=    0.0000
 XYZ=   -5.1565   -6.8201   -6.3565 Q=    0.4100 A=    0.0000 R=    0.0000 C=    0.0000
 XYZ=    5.6856    4.9347    7.4317 Q=   -0.8200 A=    0.0000 R=    0.0000 C=    0.0000
 XYZ=    6.2297    5.7259    7.1523 Q=    0.4100 A=    0.0000 R=    0.0000 C=    0.0000
 XYZ=    6.2881    4.1493    7.5738 Q=    0.4100 A=    0.0000 R=    0.0000 C=    0.0000
 XYZ=   -6.5981    1.2884   -9.8002 Q=   -0.8200 A=    0.0000 R=    0.0000 C=    0.0000
 XYZ=   -6.7907    0.7956   -8.9516 Q=    0.4100 A=    0.0000 R=    0.0000 C=    0.0000
 XYZ=   -7.3863    1.2192  -10.4119 Q=    0.4100 A=    0.0000 R=    0.0000 C=    0.0000
 XYZ=   -2.1669   -7.3778   -9.6295 Q=   -0.8200 A=    0.0000 R=    0.0000 C=    0.0000
 XYZ=   -2.7478   -6.7259  -10.1172 Q=    0.4100 A=    0.0000 R=    0.0000 C=    0.0000
 XYZ=   -1.8456   -6.9650   -8.7771 Q=    0.4100 A=    0.0000 R=    0.0000 C=    0.0000
 XYZ=    9.8600    3.5009    1.2989 Q=   -0.8200 A=    0.0000 R=    0.0000 C=    0.0000
 XYZ=    9.2835    3.7838    2.0655 Q=    0.4100 A=    0.0000 R=    0.0000 C=    0.0000
 XYZ=   10.6925    4.0548    1.2858 Q=    0.4100 A=    0.0000 R=    0.0000 C=    0.0000
 XYZ=    6.4619    0.1481    9.3395 Q=   -0.8200 A=    0.0000 R=    0.0000 C=    0.0000
 XYZ=    5.7772    0.8197    9.0564 Q=    0.4100 A=    0.0000 R=    0.0000 C=    0.0000
 XYZ=    7.2938    0.6218    9.6288 Q=    0.4100 A=    0.0000 R=    0.0000 C=    0.0000
 XYZ=    0.0361    2.3653  -12.0153 Q=   -0.8200 A=    0.0000 R=    0.0000 C=    0.0000
 XYZ=    0.7910    2.5638  -11.3903 Q=    0.4100 A=    0.0000 R=    0.0000 C=    0.0000
 XYZ=   -0.3620    1.4771  -11.7857 Q=    0.4100 A=    0.0000 R=    0.0000 C=    0.0000
 XYZ=   -7.4657   -2.1858   -8.1500 Q=   -0.8200 A=    0.0000 R=    0.0000 C=    0.0000
 XYZ=   -8.3759   -1.7715   -8.1516 Q=    0.4100 A=    0.0000 R=    0.0000 C=    0.0000
 XYZ=   -7.3785   -2.8017   -8.9330 Q=    0.4100 A=    0.0000 R=    0.0000 C=    0.0000
 XYZ=   -3.2392   -5.4044  -10.7011 Q=   -0.8200 A=    0.0000 R=    0.0000 C=    0.0000
 XYZ=   -3.1856   -5.2868  -11.6928 Q=    0.4100 A=    0.0000 R=    0.0000 C=    0.0000
 XYZ=   -2.6455   -4.7355  -10.2536 Q=    0.4100 A=    0.0000 R=    0.0000 C=    0.0000
 XYZ=    8.4353   -6.3248   -3.3943 Q=   -0.8200 A=    0.0000 R=    0.0000 C=    0.0000
 XYZ=    8.7127   -5.9334   -4.2718 Q=    0.4100 A=    0.0000 R=    0.0000 C=    0.0000
 XYZ=    9.2356   -6.7058   -2.9314 Q=    0.4100 A=    0.0000 R=    0.0000 C=    0.0000
 XYZ=   -8.2213    0.9187    8.8281 Q=   -0.8200 A=    0.0000 R=    0.0000 C=    0.0000
 XYZ=   -8.2042    0.4699    7.9346 Q=    0.4100 A=    0.0000 R=    0.0000 C=    0.0000
 XYZ=   -7.7277    1.7867    8.7745 Q=    0.4100 A=    0.0000 R=    0.0000 C=    0.0000
 XYZ=   -7.2730    8.4543    3.5696 Q=   -0.8200 A=    0.0000 R=    0.0000 C=    0.0000
 XYZ=   -7.4571    7.4771    3.6761 Q=    0.4100 A=    0.0000 R=    0.0000 C=    0.0000
 XYZ=   -7.0283    8.8460    4.4566 Q=    0.4100 A=    0.0000 R=    0.0000 C=    0.0000
 XYZ=  -10.6350    3.2755    3.3461 Q=   -0.8200 A=    0.0000 R=    0.0000 C=    0.0000
 XYZ=  -11.4871    3.3956    2.8366 Q=    0.4100 A=    0.0000 R=    0.0000 C=    0.0000
 XYZ=  -10.5572    2.3247    3.6459 Q=    0.4100 A=    0.0000 R=    0.0000 C=    0.0000
 XYZ=   -1.9476    3.8321  -11.3421 Q=   -0.8200 A=    0.0000 R=    0.0000 C=    0.0000
 XYZ=   -2.5139    3.1454  -10.8862 Q=    0.4100 A=    0.0000 R=    0.0000 C=    0.0000
 XYZ=   -1.0435    3.4479  -11.5290 Q=    0.4100 A=    0.0000 R=    0.0000 C=    0.0000
 XYZ=   -2.5156    4.8114   10.7512 Q=   -0.8200 A=    0.0000 R=    0.0000 C=    0.0000
 XYZ=   -2.6338    5.7964   10.6249 Q=    0.4100 A=    0.0000 R=    0.0000 C=    0.0000
 XYZ=   -2.2749    4.3898    9.8770 Q=    0.4100 A=    0.0000 R=    0.0000 C=    0.0000
 XYZ=   -5.1902   -8.5897    0.5540 Q=   -0.8200 A=    0.0000 R=    0.0000 C=    0.0000
 XYZ=   -5.8807   -8.5296    1.2749 Q=    0.4100 A=    0.0000 R=    0.0000 C=    0.0000
 XYZ=   -5.4667   -9.2788   -0.1158 Q=    0.4100 A=    0.0000 R=    0.0000 C=    0.0000
 XYZ=   -3.2465   -9.0675    1.6313 Q=   -0.8200 A=    0.0000 R=    0.0000 C=    0.0000
 XYZ=   -4.1176   -8.9501    1.1544 Q=    0.4100 A=    0.0000 R=    0.0000 C=    0.0000
 XYZ=   -2.5911   -9.5149    1.0228 Q=    0.4100 A=    0.0000 R=    0.0000 C=    0.0000
 XYZ=  -12.1877   -0.6560   -0.8175 Q=   -0.8200 A=    0.0000 R=    0.0000 C=    0.0000
 XYZ=  -12.6635    0.2130   -0.6817 Q=    0.4100 A=    0.0000 R=    0.0000 C=    0.0000
 XYZ=  -11.1998   -0.5023   -0.7946 Q=    0.4100 A=    0.0000 R=    0.0000 C=    0.0000
 XYZ=    7.5653    2.9991    7.5981 Q=   -0.8200 A=    0.0000 R=    0.0000 C=    0.0000
 XYZ=    8.0926    2.7357    6.7903 Q=    0.4100 A=    0.0000 R=    0.0000 C=    0.0000
 XYZ=    8.1901    3.2754    8.3284 Q=    0.4100 A=    0.0000 R=    0.0000 C=    0.0000
 XYZ=   11.5565   -1.9777    0.0650 Q=   -0.8200 A=    0.0000 R=    0.0000 C=    0.0000
 XYZ=   12.4856   -2.1055    0.4122 Q=    0.4100 A=    0.0000 R=    0.0000 C=    0.0000
 XYZ=   10.9130   -1.9687    0.8304 Q=    0.4100 A=    0.0000 R=    0.0000 C=    0.0000
 XYZ=    6.4663   -3.3177  -10.0891 Q=   -0.8200 A=    0.0000 R=    0.0000 C=    0.0000
 XYZ=    6.9351   -3.1376  -10.9539 Q=    0.4100 A=    0.0000 R=    0.0000 C=    0.0000
 XYZ=    7.0302   -2.9918   -9.3301 Q=    0.4100 A=    0.0000 R=    0.0000 C=    0.0000
 XYZ=    1.8783   -1.8709  -12.3853 Q=   -0.8200 A=    0.0000 R=    0.0000 C=    0.0000
 XYZ=    2.6393   -1.3409  -12.0110 Q=    0.4100 A=    0.0000 R=    0.0000 C=    0.0000
 XYZ=    1.9720   -1.9323  -13.3790 Q=    0.4100 A=    0.0000 R=    0.0000 C=    0.0000
 XYZ=   -0.3229   -1.3853  -12.7536 Q=   -0.8200 A=    0.0000 R=    0.0000 C=    0.0000
 XYZ=   -0.5387   -0.5651  -12.2238 Q=    0.4100 A=    0.0000 R=    0.0000 C=    0.0000
 XYZ=    0.6188   -1.6647  -12.5662 Q=    0.4100 A=    0.0000 R=    0.0000 C=    0.0000
 XYZ=   -6.6583    3.1309    9.0156 Q=   -0.8200 A=    0.0000 R=    0.0000 C=    0.0000
 XYZ=   -6.5911    2.4593    9.7535 Q=    0.4100 A=    0.0000 R=    0.0000 C=    0.0000
 XYZ=   -6.1789    3.9672    9.2815 Q=    0.4100 A=    0.0000 R=    0.0000 C=    0.0000
 XYZ=    6.1995   -5.5935   -8.7089 Q=   -0.8200 A=    0.0000 R=    0.0000 C=    0.0000
 XYZ=    6.3299   -6.4308   -9.2397 Q=    0.4100 A=    0.0000 R=    0.0000 C=    0.0000
 XYZ=    6.3515   -4.7990   -9.2969 Q=    0.4100 A=    0.0000 R=    0.0000 C=    0.0000
 XYZ=   -5.5838    5.1373    9.5347 Q=   -0.8200 A=    0.0000 R=    0.0000 C=    0.0000
 XYZ=   -6.1284    5.9569    9.7127 Q=    0.4100 A=    0.0000 R=    0.0000 C=    0.0000
 XYZ=   -4.7614    5.3880    9.0241 Q=    0.4100 A=    0.0000 R=    0.0000 C=    0.0000
 XYZ=   11.3108    0.4713   -0.1405 Q=   -0.8200 A=    0.0000 R=    0.0000 C=    0.0000
 XYZ=   11.3527   -0.5276   -0.1199 Q=    0.4100 A=    0.0000 R=    0.0000 C=    0.0000
 XYZ=   11.1332    0.8165    0.7811 Q=    0.4100 A=    0.0000 R=    0.0000 C=    0.0000
 XYZ=   -5.1670   -9.8110   -1.6746 Q=   -0.8200 A=    0.0000 R=    0.0000 C=    0.0000
 XYZ=   -5.9520  -10.4067   -1.8446 Q=    0.4100 A=    0.0000 R=    0.0000 C=    0.0000
 XYZ=   -5.2446   -8.9884   -2.2380 Q=    0.4100 A=    0.0000 R=    0.0000 C=    0.0000
 XYZ=   -2.4125   -7.1296    7.4695 Q=   -0.8200 A=    0.0000 R=    0.0000 C=    0.0000
 XYZ=   -2.2297   -6.8746    8.4191 Q=    0.4100 A=    0.0000 R=    0.0000 C=    0.0000
 XYZ=   -3.1880   -7.7601    7.4371 Q=    0.4100 A=    0.0000 R=    0.0000 C=    0.0000
 XYZ=    9.6905   -1.7204   -7.3174 Q=   -0.8200 A=    0.0000 R=    0.0000 C=    0.0000
 XYZ=    8.8600   -2.1567   -7.6635 Q=    0.4100 A=    0.0000 R=    0.0000 C=    0.0000
 XYZ=    9.4459   -0.8968   -6.8056 Q=    0.4100 A=    0.0000 R=    0.0000 C=    0.0000
 XYZ=    7.6032    4.8816   -6.9863 Q=   -0.8200 A=    0.0000 R=    0.0000 C=    0.0000
 XYZ=    8.6008    4.8813   -7.0548 Q=    0.4100 A=    0.0000 R=    0.0000 C=    0.0000
 XYZ=    7.2194    5.4510   -7.7133 Q=    0.4100 A=    0.0000 R=    0.0000 C=    0.0000
 XYZ=   -0.0053   -7.2630  -10.7742 Q=   -0.8200 A=    0.0000 R=    0.0000 C=    0.0000
 XYZ=   -0.8647   -7.4092  -10.2844 Q=    0.4100 A=    0.0000 R=    0.0000 C=    0.0000
 XYZ=    0.3988   -6.3946  -10.4864 Q=    0.4100 A=    0.0000 R=    0.0000 C=    0.0000
 XYZ=  -10.0096    2.0232   -7.2176 Q=   -0.8200 A=    0.0000 R=    0.0000 C=    0.0000
 XYZ=   -9.9627    2.2809   -8.1827 Q=    0.4100 A=    0.0000 R=    0.0000 C=    0.0000
 XYZ=   -9.4841    2.6765   -6.6723 Q=    0.4100 A=    0.0000 R=    0.0000 C=    0.0000
 XYZ=    4.6660    5.6253    9.5735 Q=   -0.8200 A=    0.0000 R=    0.0000 C=    0.0000
 XYZ=    5.4628    6.1146    9.9282 Q=    0.4100 A=    0.0000 R=    0.0000 C=    0.0000
 XYZ=    4.8383    5.3491    8.6279 Q=    0.4100 A=    0.0000 R=    0.0000 C=    0.0000
 XYZ=   -6.6316   -8.4407    2.4021 Q=   -0.8200 A=    0.0000 R=    0.0000 C=    0.0000
 XYZ=   -7.2463   -7.6551    2.4738 Q=    0.4100 A=    0.0000 R=    0.0000 C=    0.0000
 XYZ=   -6.4640   -8.8170    3.3134 Q=    0.4100 A=    0.0000 R=    0.0000 C=    0.0000
 XYZ=   -2.4365   -9.9959    3.6664 Q=   -0.8200 A=    0.0000 R=    0.0000 C=    0.0000
 XYZ=   -1.8647   -9.2636    4.0363 Q=    0.4100 A=    0.0000 R=    0.0000 C=    0.0000
 XYZ=   -2.8713   -9.6847    2.8213 Q=    0.4100 A=    0.0000 R=    0.0000 C=    0.0000
 XYZ=   -5.2779   -5.3452   -9.0592 Q=   -0.8200 A=    0.0000 R=    0.0000 C=    0.0000
 XYZ=   -4.5090   -5.4170   -9.6946 Q=    0.4100 A=    0.0000 R=    0.0000 C=    0.0000
 XYZ=   -5.2757   -6.1329   -8.4431 Q=    0.4100 A=    0.0000 R=    0.0000 C=    0.0000
 XYZ=   10.8398    3.8406   -2.8810 Q=   -0.8200 A=    0.0000 R=    0.0000 C=    0.0000
 XYZ=   11.1613    4.4096   -2.1240 Q=    0.4100 A=    0.0000 R=    0.0000 C=    0.0000
 XYZ=   10.8591    2.8791   -2.6069 Q=    0.4100 A=    0.0000 R=    0.0000 C=    0.0000
 XYZ=   -4.5497   10.3283   -4.2434 Q=   -0.8200 A=    0.0000 R=    0.0000 C=    0.0000
 XYZ=   -4.1909    9.4697   -3.8772 Q=    0.4100 A=    0.0000 R=    0.0000 C=    0.0000
 XYZ=   -4.0577   10.5645   -5.0815 Q=    0.4100 A=    0.0000 R=    0.0000 C=    0.0000
 XYZ=   -2.2542    7.0610   -9.3830 Q=   -0.8200 A=    0.0000 R=    0.0000 C=    0.0000
 XYZ=   -1.7999    7.9265   -9.1723 Q=    0.4100 A=    0.0000 R=    0.0000 C=    0.0000
 XYZ=   -1.5727    6.3885   -9.6717 Q=    0.4100 A=    0.0000 R=    0.0000 C=    0.0000
 XYZ=   -0.7377   -3.3041   11.1294 Q=   -0.8200 A=    0.0000 R=    0.0000 C=    0.0000
 XYZ=   -0.2831   -4.0099   10.5860 Q=    0.4100 A=    0.0000 R=    0.0000 C=    0.0000
 XYZ=   -1.4918   -3.7132   11.6433 Q=    0.4100 A=    0.0000 R=    0.0000 C=    0.0000
 XYZ=    4.4493    3.3261   10.1426 Q=   -0.8200 A=    0.0000 R=    0.0000 C=    0.0000
 XYZ=    5.0229    3.1683   10.9464 Q=    0.4100 A=    0.0000 R=    0.0000 C=    0.0000
 XYZ=    4.4585    4.2992    9.9124 Q=    0.4100 A=    0.0000 R=    0.0000 C=    0.0000
 XYZ=    8.0627   -8.3317    1.2202 Q=   -0.8200 A=    0.0000 R=    0.0000 C=    0.0000
 XYZ=    7.6691   -7.9047    2.0344 Q=    0.4100 A=    0.0000 R=    0.0000 C=    0.0000
 XYZ=    8.6852   -9.0641    1.4960 Q=    0.4100 A=    0.0000 R=    0.0000 C=    0.0000
 XYZ=   -3.7162   -4.7844    9.6194 Q=   -0.8200 A=    0.0000 R=    0.0000 C=    0.0000
 XYZ=   -4.1366   -5.6904    9.5702 Q=    0.4100 A=    0.0000 R=    0.0000 C=    0.0000
 XYZ=   -3.3827   -4.6217   10.5480 Q=    0.4100 A=    0.0000 R=    0.0000 C=    0.0000
 XYZ=   -9.3947   -0.7787   -8.1940 Q=   -0.8200 A=    0.0000 R=    0.0000 C=    0.0000
 XYZ=  -10.2894   -0.8960   -7.7628 Q=    0.4100 A=    0.0000 R=    0.0000 C=    0.0000
 XYZ=   -9.0915    0.1675   -8.0805 Q=    0.4100 A=    0.0000 R=    0.0000 C=    0.0000
 XYZ=    0.8277   11.2540    0.7591 Q=   -0.8200 A=    0.0000 R=    0.0000 C=    0.0000
 XYZ=    1.8079   11.4434    0.8175 Q=    0.4100 A=    0.0000 R=    0.0000 C=    0.0000
 XYZ=    0.6865   10.3490    0.3578 Q=    0.4100 A=    0.0000 R=    0.0000 C=    0.0000
 XYZ=   10.6504   -4.3120    3.1940 Q=   -0.8200 A=    0.0000 R=    0.0000 C=    0.0000
 XYZ=    9.7513   -4.7468    3.1447 Q=    0.4100 A=    0.0000 R=    0.0000 C=    0.0000
 XYZ=   11.3048   -4.8368    2.6495 Q=    0.4100 A=    0.0000 R=    0.0000 C=    0.0000
 XYZ=    8.1867    7.1837    5.0913 Q=   -0.8200 A=    0.0000 R=    0.0000 C=    0.0000
 XYZ=    8.8812    6.5307    5.3934 Q=    0.4100 A=    0.0000 R=    0.0000 C=    0.0000
 XYZ=    7.5942    6.7498    4.4125 Q=    0.4100 A=    0.0000 R=    0.0000 C=    0.0000
 XYZ=    9.2058   -5.6283   -6.0285 Q=   -0.8200 A=    0.0000 R=    0.0000 C=    0.0000
 XYZ=    9.4349   -4.7228   -5.6712 Q=    0.4100 A=    0.0000 R=    0.0000 C=    0.0000
 XYZ=   10.0472   -6.1253   -6.2411 Q=    0.4100 A=    0.0000 R=    0.0000 C=    0.0000
 XYZ=   -6.6273    7.0302    7.0403 Q=   -0.8200 A=    0.0000 R=    0.0000 C=    0.0000
 XYZ=   -6.6849    7.8961    6.5435 Q=    0.4100 A=    0.0000 R=    0.0000 C=    0.0000
 XYZ=   -6.6753    7.2062    8.0236 Q=    0.4100 A=    0.0000 R=    0.0000 C=    0.0000
 XYZ=   -6.5909    9.2945    1.4236 Q=   -0.8200 A=    0.0000 R=    0.0000 C=    0.0000
 XYZ=   -7.3077    9.6392    0.8175 Q=    0.4100 A=    0.0000 R=    0.0000 C=    0.0000
 XYZ=   -7.0024    8.9680    2.2745 Q=    0.4100 A=    0.0000 R=    0.0000 C=    0.0000
 XYZ=   -1.6048  -10.1067    0.4264 Q=   -0.8200 A=    0.0000 R=    0.0000 C=    0.0000
 XYZ=   -1.0204  -10.7656    0.9002 Q=    0.4100 A=    0.0000 R=    0.0000 C=    0.0000
 XYZ=   -2.1642  -10.5842   -0.2511 Q=    0.4100 A=    0.0000 R=    0.0000 C=    0.0000
 XYZ=    1.5440    4.6611   10.9381 Q=   -0.8200 A=    0.0000 R=    0.0000 C=    0.0000
 XYZ=    0.6942    4.5730   11.4579 Q=    0.4100 A=    0.0000 R=    0.0000 C=    0.0000
 XYZ=    1.9585    3.7585   10.8217 Q=    0.4100 A=    0.0000 R=    0.0000 C=    0.0000
 XYZ=  -12.3136   -2.1222    2.5442 Q=   -0.8200 A=    0.0000 R=    0.0000 C=    0.0000
 XYZ=  -11.5156   -1.5559    2.3382 Q=    0.4100 A=    0.0000 R=    0.0000 C=    0.0000
 XYZ=  -12.0136   -3.0435    2.7916 Q=    0.4100 A=    0.0000 R=    0.0000 C=    0.0000
 XYZ=   -5.9910   -8.8968    4.5620 Q=   -0.8200 A=    0.0000 R=    0.0000 C=    0.0000
 XYZ=   -5.8376   -8.0472    5.0668 Q=    0.4100 A=    0.0000 R=    0.0000 C=    0.0000
 XYZ=   -5.3519   -9.5955    4.8835 Q=    0.4100 A=    0.0000 R=    0.0000 C=    0.0000
 XYZ=   -1.6737   -6.3298    9.5824 Q=   -0.8200 A=    0.0000 R=    0.0000 C=    0.0000
 XYZ=   -0.7918   -5.8691    9.6836 Q=    0.4100 A=    0.0000 R=    0.0000 C=    0.0000
 XYZ=   -2.4119   -5.6646    9.6948 Q=    0.4100 A=    0.0000 R=    0.0000 C=    0.0000
 XYZ=    0.4011    9.8628    7.1320 Q=   -0.8200 A=    0.0000 R=    0.0000 C=    0.0000
 XYZ=    0.3333    8.9438    6.7438 Q=    0.4100 A=    0.0000 R=    0.0000 C=    0.0000
 XYZ=    1.2009   10.3272    6.7515 Q=    0.4100 A=    0.0000 R=    0.0000 C=    0.0000
 XYZ=    1.1952   -9.9322   -8.7398 Q=   -0.8200 A=    0.0000 R=    0.0000 C=    0.0000
 XYZ=    1.2355   -9.7906   -9.7289 Q=    0.4100 A=    0.0000 R=    0.0000 C=    0.0000
 XYZ=    1.0814   -9.0508   -8.2812 Q=    0.4100 A=    0.0000 R=    0.0000 C=    0.0000
 XYZ=   -9.2968   -6.2846    4.9362 Q=   -0.8200 A=    0.0000 R=    0.0000 C=    0.0000
 XYZ=   -8.8317   -6.3055    4.0512 Q=    0.4100 A=    0.0000 R=    0.0000 C=    0.0000
 XYZ=   -9.7443   -7.1641    5.0984 Q=    0.4100 A=    0.0000 R=    0.0000 C=    0.0000
 XYZ=    5.1140   -1.1880   10.7605 Q=   -0.8200 A=    0.0000 R=    0.0000 C=    0.0000
 XYZ=    5.7609   -0.5946   10.2816 Q=    0.4100 A=    0.0000 R=    0.0000 C=    0.0000
 XYZ=    5.5103   -2.1006   10.8608 Q=    0.4100 A=    0.0000 R=    0.0000 C=    0.0000
 XYZ=  -10.4473    5.0814    5.8994 Q=   -0.8200 A=    0.0000 R=    0.0000 C=    0.0000
 XYZ=  -10.6184    4.7565    4.9693 Q=    0.4100 A=    0.0000 R=    0.0000 C=    0.0000
 XYZ=   -9.4692    5.0214    6.0988 Q=    0.4100 A=    0.0000 R=    0.0000 C=    0.0000
 XYZ=   -3.2897    6.9295   10.3279 Q=   -0.8200 A=    0.0000 R=    0.0000 C=    0.0000
 XYZ=   -3.5007    6.3758    9.5224 Q=    0.4100 A=    0.0000 R=    0.0000 C=    0.0000
 XYZ=   -4.0597    7.5359   10.5265 Q=    0.4100 A=    0.0000 R=    0.0000 C=    0.0000
 XYZ=   -0.9786  -11.3281   -3.8105 Q=   -0.8200 A=    0.0000 R=    0.0000 C=    0.0000
 XYZ=   -0.3897  -10.9801   -3.0810 Q=    0.4100 A=    0.0000 R=    0.0000 C=    0.0000
 XYZ=   -1.3822  -10.5602   -4.3078 Q=    0.4100 A=    0.0000 R=    0.0000 C=    0.0000
 XYZ=   10.5890   -5.5833   -0.5287 Q=   -0.8200 A=    0.0000 R=    0.0000 C=    0.0000
 XYZ=   10.9382   -5.4732   -1.4593 Q=    0.4100 A=    0.0000 R=    0.0000 C=    0.0000
 XYZ=   10.2420   -6.5138   -0.4107 Q=    0.4100 A=    0.0000 R=    0.0000 C=    0.0000
[...]
    41  H    0.000000   0.000000   0.000000   0.000000   0.000000   0.000000
    42  O    0.000000   0.000000   0.000000   0.000000   0.000000  -0.058580
    43  H    0.000000   0.000000   0.000000   0.000000   0.000000  -0.001934
    44  H    0.000000   0.000000   0.000000   0.000000   0.000000   0.002610
    45  O    0.000000   0.000000  -0.123110   0.005795  -0.000111   0.000000
    46  H    0.000000   0.000000   0.000792  -0.001147   0.000208   0.000000
    47  H    0.000000   0.000000   0.054392  -0.001580  -0.003167   0.000000
    48  O    0.000000   0.000000  -0.000002   0.000000   0.000000  -0.001007
    49  H    0.000000   0.000000   0.000000   0.000000   0.000000   0.000064
    50  H    0.000000   0.000000   0.000000   0.000000   0.000000   0.000017
              31         32         33         34         35         36
     1  C    0.000811  -0.003048  -0.001327  -0.000186   0.000529  -0.001328
     2  H    0.000001  -0.000002  -0.000025   0.000000   0.000000  -0.000008
     3  H    0.000001   0.000004   0.000016  -0.000001  -0.000004   0.000000
     4  C    0.000989  -0.002578   0.000816   0.000049  -0.000467   0.000724
     5  H    0.000002   0.000001   0.000000   0.000000   0.000000   0.000000
     6  C   -0.001253   0.004644   0.000108   0.000001  -0.000005   0.000906
     7  H    0.000000  -0.000002   0.000000   0.000000   0.000000   0.000000
     8  O    0.000001   0.000000   0.000000   0.000000   0.000000  -0.000899
     9  O    0.000085   0.000106   0.000000   0.000000   0.000000  -0.047192
    10  H    0.000059  -0.000020   0.000000   0.000000   0.000000   0.004735
    11  H    0.000000  -0.000011   0.000000   0.000000   0.000000   0.003469
    12  O    0.000000   0.000000   0.000000   0.000000   0.000000  -0.000013
    13  H    0.000000   0.000000   0.000000   0.000000   0.000000   0.000006
    14  H    0.000000   0.000000   0.000000   0.000000   0.000000   0.000000
    15  O    0.000000   0.000000   0.000000   0.000000   0.000000   0.000000
    16  H    0.000000   0.000000   0.000000   0.000000   0.000000   0.000001
    17  H    0.000000   0.000000   0.000000   0.000000   0.000000   0.000000
    18  O    0.000000   0.000000   0.000000   0.000000   0.000000   0.000000
    19  H    0.000000   0.000000   0.000000   0.000000   0.000000   0.000000
    20  H    0.000000   0.000000   0.000000   0.000000   0.000000   0.000000
    21  O    0.005825   0.001770   0.000000   0.000000   0.000000  -0.001985
    22  H   -0.000642   0.000091   0.000000   0.000000   0.000000   0.000259
    23  H   -0.006424  -0.000451   0.000000   0.000000   0.000000   0.000024
    24  O    0.000000   0.000000  -0.068032  -0.000229   0.002719  -0.000009
    25  H    0.000000   0.000000  -0.005045  -0.001250   0.002108   0.000000
    26  H    0.000000   0.000000   0.000229  -0.000018  -0.000028   0.000002
    27  O    0.000000   0.000000   0.000000   0.000000   0.000000   0.000000
    28  H    0.000000   0.000000   0.000000   0.000000   0.000000   0.000000
    29  H    0.000000   0.000000   0.000000   0.000000   0.000000   0.000000
    30  O    0.218461   0.189140   0.000000   0.000000   0.000000   0.000078
    31  H    0.203265  -0.008594   0.000000   0.000000   0.000000  -0.000001
    32  H   -0.008594   0.188016   0.000000   0.000000   0.000000   0.000000
    33  O    0.000000   0.000000   8.763555   0.213390   0.224083   0.000000
    34  H    0.000000   0.000000   0.213390   0.165449  -0.007951   0.000000
    35  H    0.000000   0.000000   0.224083  -0.007951   0.270131   0.000000
    36  O   -0.000001   0.000000   0.000000   0.000000   0.000000   8.850415
    37  H    0.000000   0.000000   0.000000   0.000000   0.000000   0.218586
    38  H    0.000000   0.000000   0.000000   0.000000   0.000000   0.146652
    39  O    0.000000   0.000000   0.000000   0.000000   0.000000   0.000000
    40  H    0.000000   0.000000   0.000000   0.000000   0.000000   0.000000
    41  H    0.000000   0.000000   0.000000   0.000000   0.000000   0.000000
    42  O    0.000668   0.011711   0.000000   0.000000   0.000000   0.000000
    43  H    0.000049  -0.000207   0.000000   0.000000   0.000000   0.000000
    44  H   -0.000038   0.001037   0.000000   0.000000   0.000000   0.000000
    45  O    0.000000   0.000000   0.000000   0.000000   0.000000   0.000000
    46  H    0.000000   0.000000   0.000000   0.000000   0.000000   0.000000
    47  H    0.000000   0.000000   0.000000   0.000000   0.000000   0.000000
    48  O    0.000028  -0.000141   0.000000   0.000000   0.000000   0.000000
    49  H    0.000000   0.000048   0.000000   0.000000   0.000000   0.000000
    50  H    0.000000  -0.000007   0.000000   0.000000   0.000000   0.000000
              37         38         39         40         41         42
     1  C   -0.000108   0.000163  -0.002545   0.000496  -0.000601  -0.009647
     2  H    0.000000  -0.000008   0.000000   0.000000   0.000000  -0.000002
     3  H    0.000000   0.000000  -0.000002   0.000000   0.000000  -0.000001
     4  C    0.000131  -0.000012   0.001573   0.000159   0.000753   0.011470
     5  H    0.000000   0.000000  -0.000081  -0.000002  -0.000003  -0.000062
     6  C   -0.000047  -0.000068   0.002401  -0.000506   0.000260  -0.001467
     7  H    0.000000   0.000000   0.000000   0.000000   0.000000   0.000026
     8  O    0.000019   0.000011   0.000000   0.000000   0.000000  -0.000057
     9  O   -0.000832   0.052520   0.000000   0.000000   0.000000   0.000002
    10  H   -0.000151  -0.003164   0.000000   0.000000   0.000000   0.000017
    11  H   -0.000047  -0.000617   0.000000   0.000000   0.000000  -0.000003
    12  O    0.000000   0.000003   0.000000   0.000000   0.000000   0.000001
    13  H    0.000000   0.000000   0.000000   0.000000   0.000000   0.000000
    14  H    0.000000   0.000000   0.000000   0.000000   0.000000   0.000000
    15  O    0.000000  -0.000002   0.000000   0.000000   0.000000   0.000000
    16  H    0.000000   0.000000   0.000000   0.000000   0.000000   0.000000
    17  H    0.000000   0.000000   0.000000   0.000000   0.000000   0.000000
    18  O    0.000000   0.000000   0.000000   0.000000   0.000000   0.000000
    19  H    0.000000   0.000000   0.000000   0.000000   0.000000   0.000000
    20  H    0.000000   0.000000   0.000000   0.000000   0.000000   0.000000
    21  O    0.001001   0.002944   0.000000   0.000000   0.000000  -0.000225
    22  H   -0.000098  -0.000081   0.000000   0.000000   0.000000   0.000008
    23  H   -0.000003  -0.000004   0.000000   0.000000   0.000000   0.000376
    24  O   -0.000001   0.000000   0.000000   0.000000   0.000000   0.000000
    25  H    0.000000   0.000000   0.000000   0.000000   0.000000   0.000000
    26  H    0.000000   0.000000   0.000000   0.000000   0.000000   0.000000
    27  O    0.000000   0.000000   0.000000   0.000000   0.000000   0.000000
    28  H    0.000000   0.000000   0.000000   0.000000   0.000000   0.000000
    29  H    0.000000   0.000000   0.000000   0.000000   0.000000   0.000000
    30  O    0.000005   0.000046  -0.000004   0.000000   0.000000  -0.058580
    31  H    0.000000   0.000000   0.000000   0.000000   0.000000   0.000668
    32  H    0.000000   0.000000   0.000000   0.000000   0.000000   0.011711
    33  O    0.000000   0.000000   0.000000   0.000000   0.000000   0.000000
    34  H    0.000000   0.000000   0.000000   0.000000   0.000000   0.000000
    35  H    0.000000   0.000000   0.000000   0.000000   0.000000   0.000000
    36  O    0.218586   0.146652   0.000000   0.000000   0.000000   0.000000
    37  H    0.249452  -0.003941   0.000000   0.000000   0.000000   0.000000
    38  H   -0.003941   0.186368   0.000000   0.000000   0.000000   0.000000
    39  O    0.000000   0.000000   8.721077   0.214321   0.199790  -0.000062
    40  H    0.000000   0.000000   0.214321   0.309433  -0.007885   0.000001
    41  H    0.000000   0.000000   0.199790  -0.007885   0.153839   0.000000
    42  O    0.000000   0.000000  -0.000062   0.000001   0.000000   8.919950
    43  H    0.000000   0.000000   0.000008   0.000000  -0.000001   0.185316
    44  H    0.000000   0.000000   0.000000   0.000000   0.000000   0.226237
    45  O    0.000000   0.000000   0.000000   0.000000   0.000000   0.000000
    46  H    0.000000   0.000000   0.000000   0.000000   0.000000   0.000000
    47  H    0.000000   0.000000   0.000000   0.000000   0.000000   0.000000
    48  O    0.000000   0.000000  -0.000434   0.000011  -0.000032  -0.091076
    49  H    0.000000   0.000000   0.000000   0.000000   0.000000   0.006469
    50  H    0.000000   0.000000   0.000008  -0.000003  -0.000001   0.002313
              43         44         45         46         47         48
     1  C   -0.000022   0.000138   0.000035  -0.000007  -0.000004   0.003265
     2  H    0.000000   0.000000   0.000000   0.000000   0.000000   0.000000
     3  H    0.000000   0.000000   0.000000   0.000000   0.000000  -0.000001
     4  C    0.001284  -0.000911   0.000097   0.000120  -0.000047   0.002969
     5  H    0.000015   0.000000   0.000000   0.000000   0.000000   0.000041
     6  C   -0.000673   0.000555  -0.000117   0.000139   0.000083  -0.004220
     7  H   -0.000002  -0.000001   0.000003  -0.000002  -0.000001   0.000016
     8  O   -0.000001  -0.000002  -0.000013  -0.000022  -0.000001  -0.000009
     9  O    0.000001  -0.000001   0.000000   0.000000   0.000000   0.000000
    10  H    0.000000   0.000000   0.000000   0.000000   0.000000   0.000000
    11  H    0.000000   0.000000   0.000000   0.000000   0.000000   0.000000
    12  O    0.000000   0.000000  -0.000998  -0.000511   0.000069   0.000001
    13  H    0.000000   0.000000  -0.000009   0.000005   0.000000   0.000000
    14  H    0.000000   0.000000   0.000015   0.000008   0.000000   0.000000
    15  O    0.000000   0.000000   0.000031   0.000004  -0.000001   0.000000
    16  H    0.000000   0.000000  -0.000008  -0.000001   0.000000   0.000000
    17  H    0.000000   0.000000   0.000000   0.000000   0.000000   0.000000
    18  O    0.000000   0.000000  -0.023027   0.006171  -0.004970   0.000001
    19  H    0.000000   0.000000  -0.001171  -0.001012   0.000315   0.000000
    20  H    0.000000   0.000000  -0.000720  -0.000072   0.000120   0.000000
    21  O   -0.000024   0.000075   0.000000   0.000000   0.000000   0.000005
    22  H    0.000000   0.000000   0.000000   0.000000   0.000000   0.000000
    23  H   -0.000017  -0.000005   0.000000   0.000000   0.000000  -0.000001
    24  O    0.000000   0.000000   0.000000   0.000000   0.000000   0.000000
    25  H    0.000000   0.000000   0.000000   0.000000   0.000000   0.000000
    26  H    0.000000   0.000000   0.000000   0.000000   0.000000   0.000000
    27  O    0.000000   0.000000  -0.123110   0.000792   0.054392  -0.000002
    28  H    0.000000   0.000000   0.005795  -0.001147  -0.001580   0.000000
    29  H    0.000000   0.000000  -0.000111   0.000208  -0.003167   0.000000
    30  O   -0.001934   0.002610   0.000000   0.000000   0.000000  -0.001007
    31  H    0.000049  -0.000038   0.000000   0.000000   0.000000   0.000028
    32  H   -0.000207   0.001037   0.000000   0.000000   0.000000  -0.000141
    33  O    0.000000   0.000000   0.000000   0.000000   0.000000   0.000000
    34  H    0.000000   0.000000   0.000000   0.000000   0.000000   0.000000
    35  H    0.000000   0.000000   0.000000   0.000000   0.000000   0.000000
    36  O    0.000000   0.000000   0.000000   0.000000   0.000000   0.000000
    37  H    0.000000   0.000000   0.000000   0.000000   0.000000   0.000000
    38  H    0.000000   0.000000   0.000000   0.000000   0.000000   0.000000
    39  O    0.000008   0.000000   0.000000   0.000000   0.000000  -0.000434
    40  H    0.000000   0.000000   0.000000   0.000000   0.000000   0.000011
    41  H   -0.000001   0.000000   0.000000   0.000000   0.000000  -0.000032
    42  O    0.185316   0.226237   0.000000   0.000000   0.000000  -0.091076
    43  H    0.198220  -0.008121   0.000000   0.000000   0.000000   0.024994
    44  H   -0.008121   0.214975   0.000000   0.000000   0.000000  -0.003506
    45  O    0.000000   0.000000   8.935114   0.218937   0.143382   0.000000
    46  H    0.000000   0.000000   0.218937   0.274058  -0.005931   0.000000
    47  H    0.000000   0.000000   0.143382  -0.005931   0.200453   0.000000
    48  O    0.024994  -0.003506   0.000000   0.000000   0.000000   8.758335
    49  H   -0.005134   0.000786   0.000000   0.000000   0.000000   0.217052
    50  H    0.001521   0.000012   0.000000   0.000000   0.000000   0.217645
              49         50
     1  C   -0.000178   0.000072
     2  H    0.000000   0.000000
     3  H    0.000000   0.000000
     4  C   -0.000103  -0.000716
     5  H    0.000001  -0.000001
     6  C    0.000180   0.000588
     7  H    0.000000  -0.000001
     8  O    0.000000   0.000000
     9  O    0.000000   0.000000
    10  H    0.000000   0.000000
    11  H    0.000000   0.000000
    12  O    0.000000   0.000000
    13  H    0.000000   0.000000
    14  H    0.000000   0.000000
    15  O    0.000000   0.000000
    16  H    0.000000   0.000000
    17  H    0.000000   0.000000
    18  O    0.000000   0.000000
    19  H    0.000000   0.000000
    20  H    0.000000   0.000000
    21  O    0.000000   0.000000
    22  H    0.000000   0.000000
    23  H    0.000000   0.000000
    24  O    0.000000   0.000000
    25  H    0.000000   0.000000
    26  H    0.000000   0.000000
    27  O    0.000000   0.000000
    28  H    0.000000   0.000000
    29  H    0.000000   0.000000
    30  O    0.000064   0.000017
    31  H    0.000000   0.000000
    32  H    0.000048  -0.000007
    33  O    0.000000   0.000000
    34  H    0.000000   0.000000
    35  H    0.000000   0.000000
    36  O    0.000000   0.000000
    37  H    0.000000   0.000000
    38  H    0.000000   0.000000
    39  O    0.000000   0.000008
    40  H    0.000000  -0.000003
    41  H    0.000000  -0.000001
    42  O    0.006469   0.002313
    43  H   -0.005134   0.001521
    44  H    0.000786   0.000012
    45  O    0.000000   0.000000
    46  H    0.000000   0.000000
    47  H    0.000000   0.000000
    48  O    0.217052   0.217645
    49  H    0.219255  -0.006186
    50  H   -0.006186   0.180149
 Mulliken charges:
               1
     1  C   -0.346485
     2  H    0.271091
     3  H    0.231251
     4  C   -0.123771
     5  H    0.221301
     6  C    0.023898
     7  H    0.197404
     8  O   -0.458052
     9  O   -1.083080
    10  H    0.579771
    11  H    0.526439
    12  O   -1.289546
    13  H    0.568140
    14  H    0.669116
    15  O   -1.199636
    16  H    0.648981
    17  H    0.571367
    18  O   -1.267470
    19  H    0.641578
    20  H    0.665837
    21  O   -1.271425
    22  H    0.616448
    23  H    0.599390
    24  O   -1.178091
    25  H    0.592404
    26  H    0.574829
    27  O   -1.276870
    28  H    0.621548
    29  H    0.624033
    30  O   -1.137002
    31  H    0.586708
    32  H    0.618491
    33  O   -1.127768
    34  H    0.630745
    35  H    0.508884
    36  O   -1.174421
    37  H    0.536033
    38  H    0.619191
    39  O   -1.136050
    40  H    0.483975
    41  H    0.653882
    42  O   -1.203382
    43  H    0.604728
    44  H    0.566159
    45  O   -1.154126
    46  H    0.508261
    47  H    0.616889
    48  O   -1.123935
    49  H    0.567746
    50  H    0.604591
 Sum of Mulliken charges =   0.00000
 Mulliken charges with hydrogens summed into heavy atoms:
               1
     1  C    0.155857
     4  C    0.097530
     6  C    0.221302
     8  O   -0.458052
     9  O    0.023130
    12  O   -0.052290
    15  O    0.020712
    18  O    0.039945
    21  O   -0.055586
    24  O   -0.010858
    27  O   -0.031288
    30  O    0.068197
    33  O    0.011862
    36  O   -0.019197
    39  O    0.001807
    42  O   -0.032495
    45  O   -0.028977
    48  O    0.048402
 Electronic spatial extent (au):  <R**2>=          14498.7053
 Charge=              0.0000 electrons
 Dipole moment (field-independent basis, Debye):
    X=              0.5276    Y=             15.3303    Z=              3.3700  Tot=             15.7052
 Quadrupole moment (field-independent basis, Debye-Ang):
   XX=           -120.6506   YY=           -192.0331   ZZ=           -118.8177
   XY=             53.2098   XZ=             29.4367   YZ=              9.4657
 Traceless Quadrupole moment (field-independent basis, Debye-Ang):
   XX=             23.1832   YY=            -48.1993   ZZ=             25.0161
   XY=             53.2098   XZ=             29.4367   YZ=              9.4657
 Octapole moment (field-independent basis, Debye-Ang**2):
  XXX=            435.7302  YYY=            168.0420  ZZZ=             67.0181  XYY=           -239.7888
  XXY=             66.6060  XXZ=             55.8288  XZZ=           -157.4835  YZZ=            169.4817
  YYZ=             73.1990  XYZ=            -97.4951
 Hexadecapole moment (field-independent basis, Debye-Ang**3):
 XXXX=          -9749.0533 YYYY=          -9172.5209 ZZZZ=          -2766.2263 XXXY=           2079.4610
 XXXZ=           1915.4446 YYYX=           -229.0867 YYYZ=            997.8668 ZZZX=            629.3462
 ZZZY=            173.5192 XXYY=          -2076.6956 XXZZ=          -1981.2837 YYZZ=          -1662.5705
 XXYZ=           -428.1442 YYXZ=           -314.7352 ZZXY=            364.3408
 N-N= 9.936625450058D+02 E-N=-5.951452605158D+03  KE= 1.249045489114D+03
 Leave Link  601 at Fri Sep 14 17:41:42 2018, MaxMem=    33554432 cpu:         1.9
 (Enter /usr/local/pacerepov1/gaussian/G09D01LINDA/g09/l9999.exe)

 Test job not archived.
 1\1\GINC-RICH133-B17-29-L\SP\RLC-wPBE TD-FC\6-31+G(d)\C3H32O15\ROOT\14
 -Sep-2018\0\\#p td=(nstates=15)/6-31+g(d) lc-wpbe charge\\Acroleina in
  Water\\0,1\C,0,0.485154,0.480443,-1.430142\H,0,1.461403,0.187773,-1.0
 55732\H,0,0.429244,0.878853,-2.437062\C,0,-0.605127,0.346563,-0.658432
 \H,0,-1.591686,0.632893,-1.012412\C,0,-0.508516,-0.199107,0.712798\H,0
 ,-1.458487,-0.272107,1.272438\O,0,0.544883,-0.561317,1.236519\O,0,2.62
 2111,1.581497,1.930036\H,0,2.437981,2.515557,1.623896\H,0,1.766311,1.0
 64887,1.957126\O,0,-0.149819,-1.311873,3.721406\H,0,0.185771,-0.734863
 ,2.976796\H,0,0.200481,-0.968573,4.592896\O,0,0.998711,-3.372453,3.483
 586\H,0,0.574141,-2.468033,3.526106\H,0,0.290151,-4.076073,3.536937\O,
 0,-2.342769,-1.922513,4.080706\H,0,-2.380819,-2.326553,4.994686\H,0,-1
 .400209,-1.663423,3.869826\O,0,2.150721,3.630407,0.737296\H,0,2.738731
 ,4.089327,0.071236\H,0,1.233241,3.523487,0.354056\O,0,3.881451,-1.2206
 63,-4.214454\H,0,3.371241,-0.796133,-4.962484\H,0,4.300581,-0.508843,-
 3.650824\O,0,-4.548789,-1.996903,3.284096\H,0,-3.556029,-1.944493,3.39
 2476\H,0,-4.855769,-2.929923,3.472096\O,0,0.050151,4.066187,-0.191374\
 H,0,0.409181,4.994497,-0.094564\H,0,-0.938879,4.074287,-0.043694\O,0,2
 .545171,-0.432883,-6.095494\H,0,2.695801,0.545497,-6.237384\H,0,1.5894
 01,-0.654403,-6.288884\O,0,5.154461,1.425797,1.426856\H,0,5.332721,1.8
 15187,0.523166\H,0,4.180751,1.508577,1.639236\O,0,-4.733169,1.229457,-
 4.382654\H,0,-4.865819,0.301657,-4.033854\H,0,-3.767009,1.477447,-4.31
 1054\O,0,-2.401939,4.335817,0.001476\H,0,-3.076699,3.796047,-0.501924\
 H,0,-2.784079,4.607077,0.884896\O,0,-4.555869,-0.403533,5.007516\H,0,-
 3.631739,-0.097003,4.779326\H,0,-4.836648,-1.119853,4.368666\O,0,-4.39
 6439,3.299197,-0.456994\H,0,-4.782059,4.066227,0.055836\H,0,-4.949749,
 2.481207,-0.299504\\Version=EM64L-G09RevD.01\State=1-A\HF=-1758.789180
 3\RMSD=9.091e-09\PG=C01 [X(C3H32O15)]\\@


 ASKING FOR EFFICIENCY AND ADAPTABILITY IN THE SAME PROGRAM IS LIKE
 ASKING FOR A BEAUTIFUL AND MODEST WIFE ...
 WE'LL PROBABLY HAVE TO SETTLE FOR ONE OR THE OTHER.

             -- THE PSYCHOLOGY OF COMPUTER PROGRAMMING
                GERALD M. WEINBERG
 Job cpu time:       0 days  2 hours 35 minutes  4.8 seconds.
 File lengths (MBytes):  RWF=    792 Int=      0 D2E=      0 Chk=     96 Scr=      2
 Normal termination of Gaussian 09 at Fri Sep 14 17:41:49 2018.
