 Entering Gaussian System, Link 0=g09
 Input=Acroleina_water_15_32c.gjf
 Output=Acroleina_water_15_32c.log
 Initial command:
 /usr/local/pacerepov1/gaussian/G09D01LINDA/g09/l1.exe /nv/hp18/holiveira7/scratch/22411874/Gau-46425.inp -scrdir=/nv/hp18/holiveira7/scratch/22411874/
 Entering Link 1 = /usr/local/pacerepov1/gaussian/G09D01LINDA/g09/l1.exe PID=     46428.
  
 Copyright (c) 1988,1990,1992,1993,1995,1998,2003,2009,2013,
            Gaussian, Inc.  All Rights Reserved.
  
 This is part of the Gaussian(R) 09 program.  It is based on
 the Gaussian(R) 03 system (copyright 2003, Gaussian, Inc.),
 the Gaussian(R) 98 system (copyright 1998, Gaussian, Inc.),
 the Gaussian(R) 94 system (copyright 1995, Gaussian, Inc.),
 the Gaussian 92(TM) system (copyright 1992, Gaussian, Inc.),
 the Gaussian 90(TM) system (copyright 1990, Gaussian, Inc.),
 the Gaussian 88(TM) system (copyright 1988, Gaussian, Inc.),
 the Gaussian 86(TM) system (copyright 1986, Carnegie Mellon
 University), and the Gaussian 82(TM) system (copyright 1983,
 Carnegie Mellon University). Gaussian is a federally registered
 trademark of Gaussian, Inc.
  
 This software contains proprietary and confidential information,
 including trade secrets, belonging to Gaussian, Inc.
  
 This software is provided under written license and may be
 used, copied, transmitted, or stored only in accord with that
 written license.
  
 The following legend is applicable only to US Government
 contracts under FAR:
  
                    RESTRICTED RIGHTS LEGEND
  
 Use, reproduction and disclosure by the US Government is
 subject to restrictions as set forth in subparagraphs (a)
 and (c) of the Commercial Computer Software - Restricted
 Rights clause in FAR 52.227-19.
  
 Gaussian, Inc.
 340 Quinnipiac St., Bldg. 40, Wallingford CT 06492
  
  
 ---------------------------------------------------------------
 Warning -- This program may not be used in any manner that
 competes with the business of Gaussian, Inc. or will provide
 assistance to any competitor of Gaussian, Inc.  The licensee
 of this program is prohibited from giving any competitor of
 Gaussian, Inc. access to this program.  By using this program,
 the user acknowledges that Gaussian, Inc. is engaged in the
 business of creating and licensing software in the field of
 computational chemistry and represents and warrants to the
 licensee that it is not a competitor of Gaussian, Inc. and that
 it will not use this program in any manner prohibited above.
 ---------------------------------------------------------------
  

 Cite this work as:
 Gaussian 09, Revision D.01,
 M. J. Frisch, G. W. Trucks, H. B. Schlegel, G. E. Scuseria, 
 M. A. Robb, J. R. Cheeseman, G. Scalmani, V. Barone, B. Mennucci, 
 G. A. Petersson, H. Nakatsuji, M. Caricato, X. Li, H. P. Hratchian, 
 A. F. Izmaylov, J. Bloino, G. Zheng, J. L. Sonnenberg, M. Hada, 
 M. Ehara, K. Toyota, R. Fukuda, J. Hasegawa, M. Ishida, T. Nakajima, 
 Y. Honda, O. Kitao, H. Nakai, T. Vreven, J. A. Montgomery, Jr., 
 J. E. Peralta, F. Ogliaro, M. Bearpark, J. J. Heyd, E. Brothers, 
 K. N. Kudin, V. N. Staroverov, T. Keith, R. Kobayashi, J. Normand, 
 K. Raghavachari, A. Rendell, J. C. Burant, S. S. Iyengar, J. Tomasi, 
 M. Cossi, N. Rega, J. M. Millam, M. Klene, J. E. Knox, J. B. Cross, 
 V. Bakken, C. Adamo, J. Jaramillo, R. Gomperts, R. E. Stratmann, 
 O. Yazyev, A. J. Austin, R. Cammi, C. Pomelli, J. W. Ochterski, 
 R. L. Martin, K. Morokuma, V. G. Zakrzewski, G. A. Voth, 
 P. Salvador, J. J. Dannenberg, S. Dapprich, A. D. Daniels, 
 O. Farkas, J. B. Foresman, J. V. Ortiz, J. Cioslowski, 
 and D. J. Fox, Gaussian, Inc., Wallingford CT, 2013.
 
 ******************************************
 Gaussian 09:  EM64L-G09RevD.01 24-Apr-2013
                14-Sep-2018 
 ******************************************
 %chk=Acrolina_Din_32.chk
 %nprocshared=10
 Will use up to   10 processors via shared memory.
 -------------------------------------------
 #p td=(nstates=15)/6-31+g(d) lc-wpbe charge
 -------------------------------------------
 1/18=10,28=-2,38=1,125=101/1;
 2/12=2,17=6,18=5,40=1/2;
 3/5=1,6=6,7=11,11=9,16=1,25=1,30=1,74=-41/1,2,8,3;
 4//1;
 5/5=2,38=5/2;
 8/6=1,10=2,108=15/1;
 9/41=15,42=1,70=2/14;
 6/7=2,8=2,9=2,10=2/1;
 99/5=1,9=1/99;
 Leave Link    1 at Fri Sep 14 17:00:57 2018, MaxMem=           0 cpu:        11.8
 (Enter /usr/local/pacerepov1/gaussian/G09D01LINDA/g09/l101.exe)
 ------------------
 Acroleina in Water
 ------------------
 Symbolic Z-matrix:
 Charge =  0 Multiplicity = 1
 C                     0.48515   0.48044  -1.43014 
 H                     1.4614    0.18777  -1.05573 
 H                     0.42924   0.87885  -2.43706 
 C                    -0.60513   0.34656  -0.65843 
 H                    -1.59169   0.63289  -1.01241 
 C                    -0.50852  -0.19911   0.7128 
 H                    -1.45849  -0.27211   1.27244 
 O                     0.54488  -0.56132   1.23652 
 O                     0.08783  -1.74793   3.49055 
 H                     0.25859  -1.24056   2.6459 
 H                     0.7059   -1.42189   4.2059 
 O                     3.01705   0.90999   1.44472 
 H                     2.90779   1.82111   1.04723 
 H                     2.12103   0.47439   1.53095 
 O                     0.64716   3.70663  -0.19999 
 H                     1.05782   4.44009  -0.74169 
 H                    -0.34938   3.77147  -0.25243 
 O                    -1.69257   3.74949  -0.50326 
 H                    -2.63448   3.6169   -0.81196 
 H                    -1.69123   3.99875   0.4652 
 O                    -2.01838   4.49852   1.83999 
 H                    -2.97698   4.24101   1.96194 
 H                    -1.4427    3.92653   2.42435 
 O                    -1.53938   3.30575  -4.2911 
 H                    -0.89367   3.16976  -3.53972 
 H                    -2.45214   3.4755   -3.9195 
 O                     1.20134  -3.88576   3.12089 
 H                     0.73407  -3.00171   3.13381 
 H                     0.55986  -4.60566   3.38592 
 O                     2.74144   3.11416   0.59637 
 H                     3.35396   3.57708  -0.04436 
 H                     1.79469   3.23189   0.29653 
 O                    -2.0764   -2.4832    3.71814 
 H                    -2.09085  -3.15834   4.45572 
 H                    -1.14542  -2.13735   3.60109 
 O                    -4.09642   2.84289  -0.81354 
 H                    -4.71187   3.58831  -0.55741 
 H                    -4.59871   1.97819  -0.80515 
 O                    -3.50943   3.39491  -3.14382 
 H                    -3.82963   3.24691  -2.20806 
 H                    -4.14244   2.96131  -3.78515 
 O                    -2.18586   1.31258  -5.54922 
 H                    -1.63893   1.95932  -5.01754 
 H                    -2.31672   1.66861  -6.47454 
 O                    -1.12441   5.7037   -1.99107 
 H                    -1.14188   4.84447  -1.47972 
 H                    -1.22643   6.47069  -1.35755 
 O                     2.87807  -1.24316  -5.93948 
 H                     2.91411  -0.29484  -6.2548 
 H                     1.94447  -1.58955  -6.03105 
 
 NAtoms=     50 NQM=       50 NQMF=       0 NMMI=      0 NMMIF=      0
                NMic=       0 NMicF=      0.
                    Isotopes and Nuclear Properties:
 (Nuclear quadrupole moments (NQMom) in fm**2, nuclear magnetic moments (NMagM)
  in nuclear magnetons)

  Atom         1           2           3           4           5           6           7           8           9          10
 IAtWgt=          12           1           1          12           1          12           1          16          16           1
 AtmWgt=  12.0000000   1.0078250   1.0078250  12.0000000   1.0078250  12.0000000   1.0078250  15.9949146  15.9949146   1.0078250
 NucSpn=           0           1           1           0           1           0           1           0           0           1
 AtZEff=   0.0000000   0.0000000   0.0000000   0.0000000   0.0000000   0.0000000   0.0000000   0.0000000   0.0000000   0.0000000
 NQMom=    0.0000000   0.0000000   0.0000000   0.0000000   0.0000000   0.0000000   0.0000000   0.0000000   0.0000000   0.0000000
 NMagM=    0.0000000   2.7928460   2.7928460   0.0000000   2.7928460   0.0000000   2.7928460   0.0000000   0.0000000   2.7928460
 AtZNuc=   6.0000000   1.0000000   1.0000000   6.0000000   1.0000000   6.0000000   1.0000000   8.0000000   8.0000000   1.0000000

  Atom        11          12          13          14          15          16          17          18          19          20
 IAtWgt=           1          16           1           1          16           1           1          16           1           1
 AtmWgt=   1.0078250  15.9949146   1.0078250   1.0078250  15.9949146   1.0078250   1.0078250  15.9949146   1.0078250   1.0078250
 NucSpn=           1           0           1           1           0           1           1           0           1           1
 AtZEff=   0.0000000   0.0000000   0.0000000   0.0000000   0.0000000   0.0000000   0.0000000   0.0000000   0.0000000   0.0000000
 NQMom=    0.0000000   0.0000000   0.0000000   0.0000000   0.0000000   0.0000000   0.0000000   0.0000000   0.0000000   0.0000000
 NMagM=    2.7928460   0.0000000   2.7928460   2.7928460   0.0000000   2.7928460   2.7928460   0.0000000   2.7928460   2.7928460
 AtZNuc=   1.0000000   8.0000000   1.0000000   1.0000000   8.0000000   1.0000000   1.0000000   8.0000000   1.0000000   1.0000000

  Atom        21          22          23          24          25          26          27          28          29          30
 IAtWgt=          16           1           1          16           1           1          16           1           1          16
 AtmWgt=  15.9949146   1.0078250   1.0078250  15.9949146   1.0078250   1.0078250  15.9949146   1.0078250   1.0078250  15.9949146
 NucSpn=           0           1           1           0           1           1           0           1           1           0
 AtZEff=   0.0000000   0.0000000   0.0000000   0.0000000   0.0000000   0.0000000   0.0000000   0.0000000   0.0000000   0.0000000
 NQMom=    0.0000000   0.0000000   0.0000000   0.0000000   0.0000000   0.0000000   0.0000000   0.0000000   0.0000000   0.0000000
 NMagM=    0.0000000   2.7928460   2.7928460   0.0000000   2.7928460   2.7928460   0.0000000   2.7928460   2.7928460   0.0000000
 AtZNuc=   8.0000000   1.0000000   1.0000000   8.0000000   1.0000000   1.0000000   8.0000000   1.0000000   1.0000000   8.0000000

  Atom        31          32          33          34          35          36          37          38          39          40
 IAtWgt=           1           1          16           1           1          16           1           1          16           1
 AtmWgt=   1.0078250   1.0078250  15.9949146   1.0078250   1.0078250  15.9949146   1.0078250   1.0078250  15.9949146   1.0078250
 NucSpn=           1           1           0           1           1           0           1           1           0           1
 AtZEff=   0.0000000   0.0000000   0.0000000   0.0000000   0.0000000   0.0000000   0.0000000   0.0000000   0.0000000   0.0000000
 NQMom=    0.0000000   0.0000000   0.0000000   0.0000000   0.0000000   0.0000000   0.0000000   0.0000000   0.0000000   0.0000000
 NMagM=    2.7928460   2.7928460   0.0000000   2.7928460   2.7928460   0.0000000   2.7928460   2.7928460   0.0000000   2.7928460
 AtZNuc=   1.0000000   1.0000000   8.0000000   1.0000000   1.0000000   8.0000000   1.0000000   1.0000000   8.0000000   1.0000000

  Atom        41          42          43          44          45          46          47          48          49          50
 IAtWgt=           1          16           1           1          16           1           1          16           1           1
 AtmWgt=   1.0078250  15.9949146   1.0078250   1.0078250  15.9949146   1.0078250   1.0078250  15.9949146   1.0078250   1.0078250
 NucSpn=           1           0           1           1           0           1           1           0           1           1
 AtZEff=   0.0000000   0.0000000   0.0000000   0.0000000   0.0000000   0.0000000   0.0000000   0.0000000   0.0000000   0.0000000
 NQMom=    0.0000000   0.0000000   0.0000000   0.0000000   0.0000000   0.0000000   0.0000000   0.0000000   0.0000000   0.0000000
 NMagM=    2.7928460   0.0000000   2.7928460   2.7928460   0.0000000   2.7928460   2.7928460   0.0000000   2.7928460   2.7928460
 AtZNuc=   1.0000000   8.0000000   1.0000000   1.0000000   8.0000000   1.0000000   1.0000000   8.0000000   1.0000000   1.0000000
 Background charge distribution read from input stream:
 Point Charges:
 XYZ=   -4.2457    3.6228    2.0907 Q=   -0.8200 A=    0.0000 R=    0.0000 C=    0.0000
 XYZ=   -4.8223    4.0331    1.3842 Q=    0.4100 A=    0.0000 R=    0.0000 C=    0.0000
 XYZ=   -4.5490    3.9348    2.9911 Q=    0.4100 A=    0.0000 R=    0.0000 C=    0.0000
 XYZ=    5.4621    0.8044    0.9457 Q=   -0.8200 A=    0.0000 R=    0.0000 C=    0.0000
 XYZ=    5.5968    0.8949   -0.0411 Q=    0.4100 A=    0.0000 R=    0.0000 C=    0.0000
 XYZ=    4.4973    0.9497    1.1650 Q=    0.4100 A=    0.0000 R=    0.0000 C=    0.0000
 XYZ=    4.2374   -2.1340   -4.0582 Q=   -0.8200 A=    0.0000 R=    0.0000 C=    0.0000
 XYZ=    3.5967   -1.6526   -4.6565 Q=    0.4100 A=    0.0000 R=    0.0000 C=    0.0000
 XYZ=    4.9739   -1.5129   -3.7903 Q=    0.4100 A=    0.0000 R=    0.0000 C=    0.0000
 XYZ=   -0.9568    6.5374    1.7206 Q=   -0.8200 A=    0.0000 R=    0.0000 C=    0.0000
 XYZ=   -1.4201    7.1255    2.3836 Q=    0.4100 A=    0.0000 R=    0.0000 C=    0.0000
 XYZ=   -1.3851    5.6337    1.7202 Q=    0.4100 A=    0.0000 R=    0.0000 C=    0.0000
 XYZ=   -4.1819    0.1162   -5.2175 Q=   -0.8200 A=    0.0000 R=    0.0000 C=    0.0000
 XYZ=   -4.0983   -0.6466   -4.5763 Q=    0.4100 A=    0.0000 R=    0.0000 C=    0.0000
 XYZ=   -3.3288    0.6380   -5.2277 Q=    0.4100 A=    0.0000 R=    0.0000 C=    0.0000
 XYZ=   -5.9912    1.8912    1.7367 Q=   -0.8200 A=    0.0000 R=    0.0000 C=    0.0000
 XYZ=   -5.1815    2.4323    1.9643 Q=    0.4100 A=    0.0000 R=    0.0000 C=    0.0000
 XYZ=   -5.9027    1.5340    0.8069 Q=    0.4100 A=    0.0000 R=    0.0000 C=    0.0000
 XYZ=    1.4530   -1.3887    5.7501 Q=   -0.8200 A=    0.0000 R=    0.0000 C=    0.0000
 XYZ=    1.9510   -0.8373    6.4194 Q=    0.4100 A=    0.0000 R=    0.0000 C=    0.0000
 XYZ=    2.1008   -1.9406    5.2249 Q=    0.4100 A=    0.0000 R=    0.0000 C=    0.0000
 XYZ=    2.8550   -2.8194    4.5902 Q=   -0.8200 A=    0.0000 R=    0.0000 C=    0.0000
 XYZ=    3.7250   -2.6184    4.1400 Q=    0.4100 A=    0.0000 R=    0.0000 C=    0.0000
 XYZ=    2.3142   -3.4308    4.0124 Q=    0.4100 A=    0.0000 R=    0.0000 C=    0.0000
 XYZ=   -5.8000    1.0483   -0.6528 Q=   -0.8200 A=    0.0000 R=    0.0000 C=    0.0000
 XYZ=   -6.1555    0.1202   -0.5426 Q=    0.4100 A=    0.0000 R=    0.0000 C=    0.0000
 XYZ=   -6.2301    1.4779   -1.4468 Q=    0.4100 A=    0.0000 R=    0.0000 C=    0.0000
 XYZ=   -4.1538   -2.8102    2.6547 Q=   -0.8200 A=    0.0000 R=    0.0000 C=    0.0000
 XYZ=   -3.1931   -2.6826    2.9012 Q=    0.4100 A=    0.0000 R=    0.0000 C=    0.0000
 XYZ=   -4.4501   -3.7247    2.9304 Q=    0.4100 A=    0.0000 R=    0.0000 C=    0.0000
 XYZ=    2.7028   -5.3767    1.8923 Q=   -0.8200 A=    0.0000 R=    0.0000 C=    0.0000
 XYZ=    2.0049   -4.7253    2.1900 Q=    0.4100 A=    0.0000 R=    0.0000 C=    0.0000
 XYZ=    3.0100   -5.9172    2.6756 Q=    0.4100 A=    0.0000 R=    0.0000 C=    0.0000
 XYZ=    3.6224    4.4641    2.3268 Q=   -0.8200 A=    0.0000 R=    0.0000 C=    0.0000
 XYZ=    3.2449    3.7620    1.7229 Q=    0.4100 A=    0.0000 R=    0.0000 C=    0.0000
 XYZ=    4.0042    5.2067    1.7765 Q=    0.4100 A=    0.0000 R=    0.0000 C=    0.0000
 XYZ=   -5.1108    2.2336   -4.4848 Q=   -0.8200 A=    0.0000 R=    0.0000 C=    0.0000
 XYZ=   -5.5130    2.6267   -5.3117 Q=    0.4100 A=    0.0000 R=    0.0000 C=    0.0000
 XYZ=   -4.6363    1.3843   -4.7163 Q=    0.4100 A=    0.0000 R=    0.0000 C=    0.0000
 XYZ=    5.7432    0.8477   -1.3507 Q=   -0.8200 A=    0.0000 R=    0.0000 C=    0.0000
 XYZ=    5.6998    1.7746   -1.7238 Q=    0.4100 A=    0.0000 R=    0.0000 C=    0.0000
 XYZ=    5.5533    0.1869   -2.0768 Q=    0.4100 A=    0.0000 R=    0.0000 C=    0.0000
 XYZ=   -0.9048    4.1981   -6.2954 Q=   -0.8200 A=    0.0000 R=    0.0000 C=    0.0000
 XYZ=   -1.2490    3.8311   -5.4312 Q=    0.4100 A=    0.0000 R=    0.0000 C=    0.0000
 XYZ=   -1.6721    4.3723   -6.9126 Q=    0.4100 A=    0.0000 R=    0.0000 C=    0.0000
 XYZ=   -3.3003    5.8216   -3.3703 Q=   -0.8200 A=    0.0000 R=    0.0000 C=    0.0000
 XYZ=   -2.4477    5.9005   -2.8537 Q=    0.4100 A=    0.0000 R=    0.0000 C=    0.0000
 XYZ=   -3.6345    4.8805   -3.3201 Q=    0.4100 A=    0.0000 R=    0.0000 C=    0.0000
 XYZ=    5.4900   -3.9270   -3.4805 Q=   -0.8200 A=    0.0000 R=    0.0000 C=    0.0000
 XYZ=    6.1085   -3.5772   -2.7769 Q=    0.4100 A=    0.0000 R=    0.0000 C=    0.0000
 XYZ=    4.8374   -3.2134   -3.7354 Q=    0.4100 A=    0.0000 R=    0.0000 C=    0.0000
 XYZ=    0.1767   -3.1266    6.5217 Q=   -0.8200 A=    0.0000 R=    0.0000 C=    0.0000
 XYZ=    0.5933   -2.3121    6.1178 Q=    0.4100 A=    0.0000 R=    0.0000 C=    0.0000
 XYZ=   -0.5723   -3.4418    5.9388 Q=    0.4100 A=    0.0000 R=    0.0000 C=    0.0000
 XYZ=    1.0409    6.0947   -3.1212 Q=   -0.8200 A=    0.0000 R=    0.0000 C=    0.0000
 XYZ=    0.1565    5.8321   -2.7353 Q=    0.4100 A=    0.0000 R=    0.0000 C=    0.0000
 XYZ=    1.1407    5.6911   -4.0307 Q=    0.4100 A=    0.0000 R=    0.0000 C=    0.0000
 XYZ=    2.0578    5.4435    3.9172 Q=   -0.8200 A=    0.0000 R=    0.0000 C=    0.0000
 XYZ=    1.6785    6.0583    3.2257 Q=    0.4100 A=    0.0000 R=    0.0000 C=    0.0000
 XYZ=    2.4651    4.6480    3.4685 Q=    0.4100 A=    0.0000 R=    0.0000 C=    0.0000
 XYZ=    1.9918    5.2681   -1.3307 Q=   -0.8200 A=    0.0000 R=    0.0000 C=    0.0000
 XYZ=    2.8571    4.7840   -1.4608 Q=    0.4100 A=    0.0000 R=    0.0000 C=    0.0000
 XYZ=    1.7608    5.7681   -2.1654 Q=    0.4100 A=    0.0000 R=    0.0000 C=    0.0000
 XYZ=   -4.3486   -1.6258    4.7969 Q=   -0.8200 A=    0.0000 R=    0.0000 C=    0.0000
 XYZ=   -3.3618   -1.5725    4.9498 Q=    0.4100 A=    0.0000 R=    0.0000 C=    0.0000
 XYZ=   -4.5262   -2.0671    3.9173 Q=    0.4100 A=    0.0000 R=    0.0000 C=    0.0000
 XYZ=    4.9729   -2.2072    3.7731 Q=   -0.8200 A=    0.0000 R=    0.0000 C=    0.0000
 XYZ=    5.3569   -1.5901    4.4600 Q=    0.4100 A=    0.0000 R=    0.0000 C=    0.0000
 XYZ=    5.5231   -2.1615    2.9393 Q=    0.4100 A=    0.0000 R=    0.0000 C=    0.0000
 XYZ=    5.9765   -0.9618   -3.0887 Q=   -0.8200 A=    0.0000 R=    0.0000 C=    0.0000
 XYZ=    6.6897   -0.6778   -3.7297 Q=    0.4100 A=    0.0000 R=    0.0000 C=    0.0000
 XYZ=    6.3248   -1.6969   -2.5069 Q=    0.4100 A=    0.0000 R=    0.0000 C=    0.0000
 XYZ=    4.8987   -5.8250    0.8500 Q=   -0.8200 A=    0.0000 R=    0.0000 C=    0.0000
 XYZ=    3.9910   -5.4900    1.1027 Q=    0.4100 A=    0.0000 R=    0.0000 C=    0.0000
 XYZ=    4.8305   -6.3792    0.0204 Q=    0.4100 A=    0.0000 R=    0.0000 C=    0.0000
 XYZ=    4.3454   -2.5862   -7.2331 Q=   -0.8200 A=    0.0000 R=    0.0000 C=    0.0000
 XYZ=    4.5244   -3.4919   -6.8488 Q=    0.4100 A=    0.0000 R=    0.0000 C=    0.0000
 XYZ=    3.6388   -2.1288   -6.6930 Q=    0.4100 A=    0.0000 R=    0.0000 C=    0.0000
 XYZ=   -5.5108    4.4598    0.1046 Q=   -0.8200 A=    0.0000 R=    0.0000 C=    0.0000
 XYZ=   -5.2846    5.4118   -0.1014 Q=    0.4100 A=    0.0000 R=    0.0000 C=    0.0000
 XYZ=   -6.3484    4.2042   -0.3783 Q=    0.4100 A=    0.0000 R=    0.0000 C=    0.0000
 XYZ=   -1.0421    7.3880   -0.3847 Q=   -0.8200 A=    0.0000 R=    0.0000 C=    0.0000
 XYZ=   -0.1628    7.8547   -0.4800 Q=    0.4100 A=    0.0000 R=    0.0000 C=    0.0000
 XYZ=   -1.1026    6.9734    0.5233 Q=    0.4100 A=    0.0000 R=    0.0000 C=    0.0000
 XYZ=    1.2266    6.9866    2.2537 Q=   -0.8200 A=    0.0000 R=    0.0000 C=    0.0000
 XYZ=    1.2864    7.7855    2.8522 Q=    0.4100 A=    0.0000 R=    0.0000 C=    0.0000
 XYZ=    0.2681    6.8068    2.0326 Q=    0.4100 A=    0.0000 R=    0.0000 C=    0.0000
 XYZ=   -6.9503    2.0657   -2.3585 Q=   -0.8200 A=    0.0000 R=    0.0000 C=    0.0000
 XYZ=   -6.3932    2.2777   -3.1615 Q=    0.4100 A=    0.0000 R=    0.0000 C=    0.0000
 XYZ=   -7.8378    1.7110   -2.6528 Q=    0.4100 A=    0.0000 R=    0.0000 C=    0.0000
 XYZ=   -0.8619   -2.5031   -8.8429 Q=   -0.8200 A=    0.0000 R=    0.0000 C=    0.0000
 XYZ=   -0.7972   -3.3924   -9.2957 Q=    0.4100 A=    0.0000 R=    0.0000 C=    0.0000
 XYZ=   -1.0803   -2.6365   -7.8761 Q=    0.4100 A=    0.0000 R=    0.0000 C=    0.0000
 XYZ=    7.1712   -0.8228    1.2932 Q=   -0.8200 A=    0.0000 R=    0.0000 C=    0.0000
 XYZ=    6.3183   -0.3027    1.3387 Q=    0.4100 A=    0.0000 R=    0.0000 C=    0.0000
 XYZ=    7.0174   -1.7464    1.6444 Q=    0.4100 A=    0.0000 R=    0.0000 C=    0.0000
 XYZ=   -6.9912    0.2983    3.2671 Q=   -0.8200 A=    0.0000 R=    0.0000 C=    0.0000
 XYZ=   -6.5868    0.8070    2.5070 Q=    0.4100 A=    0.0000 R=    0.0000 C=    0.0000
 XYZ=   -6.3810    0.3401    4.0583 Q=    0.4100 A=    0.0000 R=    0.0000 C=    0.0000
 XYZ=   -6.2913   -2.6680    1.5127 Q=   -0.8200 A=    0.0000 R=    0.0000 C=    0.0000
 XYZ=   -5.3794   -2.4035    1.8264 Q=    0.4100 A=    0.0000 R=    0.0000 C=    0.0000
 XYZ=   -6.2889   -3.6355    1.2594 Q=    0.4100 A=    0.0000 R=    0.0000 C=    0.0000
 XYZ=    2.6624    6.8085    0.3157 Q=   -0.8200 A=    0.0000 R=    0.0000 C=    0.0000
 XYZ=    2.0400    6.9404    1.0873 Q=    0.4100 A=    0.0000 R=    0.0000 C=    0.0000
 XYZ=    2.2726    6.1384   -0.3162 Q=    0.4100 A=    0.0000 R=    0.0000 C=    0.0000
 XYZ=    2.2229   -7.5396    0.2096 Q=   -0.8200 A=    0.0000 R=    0.0000 C=    0.0000
 XYZ=    2.4752   -6.7890    0.8204 Q=    0.4100 A=    0.0000 R=    0.0000 C=    0.0000
 XYZ=    2.9034   -7.6195   -0.5189 Q=    0.4100 A=    0.0000 R=    0.0000 C=    0.0000
 XYZ=   -5.6888    0.1395    5.2186 Q=   -0.8200 A=    0.0000 R=    0.0000 C=    0.0000
 XYZ=   -4.9873   -0.5439    5.0165 Q=    0.4100 A=    0.0000 R=    0.0000 C=    0.0000
 XYZ=   -6.3394   -0.2359    5.8788 Q=    0.4100 A=    0.0000 R=    0.0000 C=    0.0000
 XYZ=    5.4969    3.6752    3.6051 Q=   -0.8200 A=    0.0000 R=    0.0000 C=    0.0000
 XYZ=    5.2500    3.4279    4.5421 Q=    0.4100 A=    0.0000 R=    0.0000 C=    0.0000
 XYZ=    4.6656    3.8121    3.0664 Q=    0.4100 A=    0.0000 R=    0.0000 C=    0.0000
 XYZ=    4.0507    4.3306   -0.9919 Q=   -0.8200 A=    0.0000 R=    0.0000 C=    0.0000
 XYZ=    4.4622    4.9566   -0.3294 Q=    0.4100 A=    0.0000 R=    0.0000 C=    0.0000
 XYZ=    4.7586    3.9846   -1.6076 Q=    0.4100 A=    0.0000 R=    0.0000 C=    0.0000
 XYZ=    3.1814    0.6235   -7.4413 Q=   -0.8200 A=    0.0000 R=    0.0000 C=    0.0000
 XYZ=    4.1485    0.5720   -7.1923 Q=    0.4100 A=    0.0000 R=    0.0000 C=    0.0000
 XYZ=    3.0735    0.3932   -8.4084 Q=    0.4100 A=    0.0000 R=    0.0000 C=    0.0000
 XYZ=   -5.3031    4.0566    4.2514 Q=   -0.8200 A=    0.0000 R=    0.0000 C=    0.0000
 XYZ=   -6.0574    4.6419    3.9537 Q=    0.4100 A=    0.0000 R=    0.0000 C=    0.0000
 XYZ=   -5.6638    3.2993    4.7958 Q=    0.4100 A=    0.0000 R=    0.0000 C=    0.0000
 XYZ=    6.4156   -4.1717   -0.0063 Q=   -0.8200 A=    0.0000 R=    0.0000 C=    0.0000
 XYZ=    5.7318   -4.7553    0.4319 Q=    0.4100 A=    0.0000 R=    0.0000 C=    0.0000
 XYZ=    7.3238   -4.5714    0.1180 Q=    0.4100 A=    0.0000 R=    0.0000 C=    0.0000
 XYZ=   -4.4738   -5.2775   -4.6353 Q=   -0.8200 A=    0.0000 R=    0.0000 C=    0.0000
 XYZ=   -5.2104   -5.3259   -5.3099 Q=    0.4100 A=    0.0000 R=    0.0000 C=    0.0000
 XYZ=   -3.6598   -4.8795   -5.0586 Q=    0.4100 A=    0.0000 R=    0.0000 C=    0.0000
 XYZ=   -6.8189   -1.2218   -0.5959 Q=   -0.8200 A=    0.0000 R=    0.0000 C=    0.0000
 XYZ=   -6.6296   -1.8494   -1.3511 Q=    0.4100 A=    0.0000 R=    0.0000 C=    0.0000
 XYZ=   -6.6089   -1.6718    0.2721 Q=    0.4100 A=    0.0000 R=    0.0000 C=    0.0000
 XYZ=    6.7666    1.9296    2.6320 Q=   -0.8200 A=    0.0000 R=    0.0000 C=    0.0000
 XYZ=    6.2044    2.5694    3.1561 Q=    0.4100 A=    0.0000 R=    0.0000 C=    0.0000
 XYZ=    6.2775    1.6578    1.8032 Q=    0.4100 A=    0.0000 R=    0.0000 C=    0.0000
 XYZ=    6.9620   -2.8577   -1.8743 Q=   -0.8200 A=    0.0000 R=    0.0000 C=    0.0000
 XYZ=    7.8927   -2.5498   -1.6768 Q=    0.4100 A=    0.0000 R=    0.0000 C=    0.0000
 XYZ=    6.6695   -3.5067   -1.1719 Q=    0.4100 A=    0.0000 R=    0.0000 C=    0.0000
 XYZ=    1.1051    5.1013   -5.2812 Q=   -0.8200 A=    0.0000 R=    0.0000 C=    0.0000
 XYZ=    0.3415    4.8569   -5.8788 Q=    0.4100 A=    0.0000 R=    0.0000 C=    0.0000
 XYZ=    1.9165    4.5810   -5.5475 Q=    0.4100 A=    0.0000 R=    0.0000 C=    0.0000
 XYZ=   -2.0726   -3.8389    5.6671 Q=   -0.8200 A=    0.0000 R=    0.0000 C=    0.0000
 XYZ=   -2.8334   -3.6900    6.2989 Q=    0.4100 A=    0.0000 R=    0.0000 C=    0.0000
 XYZ=   -2.0248   -4.8082    5.4256 Q=    0.4100 A=    0.0000 R=    0.0000 C=    0.0000
 XYZ=    0.1613   -5.6946    4.1186 Q=   -0.8200 A=    0.0000 R=    0.0000 C=    0.0000
 XYZ=   -0.2085   -6.3953    3.5085 Q=    0.4100 A=    0.0000 R=    0.0000 C=    0.0000
 XYZ=    0.8300   -6.1093    4.7358 Q=    0.4100 A=    0.0000 R=    0.0000 C=    0.0000
 XYZ=    6.6254   -2.9639    1.9995 Q=   -0.8200 A=    0.0000 R=    0.0000 C=    0.0000
 XYZ=    6.4916   -3.3397    1.0825 Q=    0.4100 A=    0.0000 R=    0.0000 C=    0.0000
 XYZ=    6.7196   -3.7124    2.6560 Q=    0.4100 A=    0.0000 R=    0.0000 C=    0.0000
 XYZ=    2.4562    2.7393   -7.3172 Q=   -0.8200 A=    0.0000 R=    0.0000 C=    0.0000
 XYZ=    2.9980    3.4010   -6.7988 Q=    0.4100 A=    0.0000 R=    0.0000 C=    0.0000
 XYZ=    2.9440    1.8672   -7.3569 Q=    0.4100 A=    0.0000 R=    0.0000 C=    0.0000
 XYZ=    5.4175   -6.1390   -2.8230 Q=   -0.8200 A=    0.0000 R=    0.0000 C=    0.0000
 XYZ=    5.3099   -5.1829   -3.0956 Q=    0.4100 A=    0.0000 R=    0.0000 C=    0.0000
 XYZ=    5.2989   -6.7288   -3.6218 Q=    0.4100 A=    0.0000 R=    0.0000 C=    0.0000
 XYZ=   -4.7834    0.6711   -7.4367 Q=   -0.8200 A=    0.0000 R=    0.0000 C=    0.0000
 XYZ=   -5.1818   -0.0570   -7.9944 Q=    0.4100 A=    0.0000 R=    0.0000 C=    0.0000
 XYZ=   -4.6655    0.3457   -6.4985 Q=    0.4100 A=    0.0000 R=    0.0000 C=    0.0000
 XYZ=    3.5327   -3.7588    6.8975 Q=   -0.8200 A=    0.0000 R=    0.0000 C=    0.0000
 XYZ=    3.1144   -3.4533    6.0421 Q=    0.4100 A=    0.0000 R=    0.0000 C=    0.0000
 XYZ=    3.9910   -2.9871    7.3386 Q=    0.4100 A=    0.0000 R=    0.0000 C=    0.0000
 XYZ=    2.6350    3.9388    5.7913 Q=   -0.8200 A=    0.0000 R=    0.0000 C=    0.0000
 XYZ=    2.4099    4.7673    5.2784 Q=    0.4100 A=    0.0000 R=    0.0000 C=    0.0000
 XYZ=    2.1146    3.9237    6.6452 Q=    0.4100 A=    0.0000 R=    0.0000 C=    0.0000
 XYZ=   -4.2064    5.4860    5.7503 Q=   -0.8200 A=    0.0000 R=    0.0000 C=    0.0000
 XYZ=   -5.0178    5.8274    6.2248 Q=    0.4100 A=    0.0000 R=    0.0000 C=    0.0000
 XYZ=   -4.4771    4.7877    5.0876 Q=    0.4100 A=    0.0000 R=    0.0000 C=    0.0000
 XYZ=    2.7320   -0.2212    7.3578 Q=   -0.8200 A=    0.0000 R=    0.0000 C=    0.0000
 XYZ=    3.1189   -1.0645    7.7308 Q=    0.4100 A=    0.0000 R=    0.0000 C=    0.0000
 XYZ=    3.4700    0.3637    7.0213 Q=    0.4100 A=    0.0000 R=    0.0000 C=    0.0000
 XYZ=   -7.6446    3.7325   -0.9075 Q=   -0.8200 A=    0.0000 R=    0.0000 C=    0.0000
 XYZ=   -7.8736    4.3980   -1.6180 Q=    0.4100 A=    0.0000 R=    0.0000 C=    0.0000
 XYZ=   -7.2738    2.9063   -1.3317 Q=    0.4100 A=    0.0000 R=    0.0000 C=    0.0000
 XYZ=    7.9025    0.2034   -0.7533 Q=   -0.8200 A=    0.0000 R=    0.0000 C=    0.0000
 XYZ=    7.0726    0.6031   -1.1428 Q=    0.4100 A=    0.0000 R=    0.0000 C=    0.0000
 XYZ=    7.6830   -0.2384    0.1165 Q=    0.4100 A=    0.0000 R=    0.0000 C=    0.0000
 XYZ=    0.4081    3.3265   -8.1783 Q=   -0.8200 A=    0.0000 R=    0.0000 C=    0.0000
 XYZ=   -0.1392    3.3770   -7.3429 Q=    0.4100 A=    0.0000 R=    0.0000 C=    0.0000
 XYZ=    1.3531    3.0979   -7.9443 Q=    0.4100 A=    0.0000 R=    0.0000 C=    0.0000
 XYZ=    4.7670    3.1121    5.6015 Q=   -0.8200 A=    0.0000 R=    0.0000 C=    0.0000
 XYZ=    5.2586    3.5838    6.3336 Q=    0.4100 A=    0.0000 R=    0.0000 C=    0.0000
 XYZ=    3.8437    3.4884    5.5239 Q=    0.4100 A=    0.0000 R=    0.0000 C=    0.0000
 XYZ=   -2.9113    2.2863   -7.4792 Q=   -0.8200 A=    0.0000 R=    0.0000 C=    0.0000
 XYZ=   -3.8036    1.8539   -7.3491 Q=    0.4100 A=    0.0000 R=    0.0000 C=    0.0000
 XYZ=   -3.0369    3.2616   -7.6611 Q=    0.4100 A=    0.0000 R=    0.0000 C=    0.0000
 XYZ=   -7.7900    3.4318    2.7391 Q=   -0.8200 A=    0.0000 R=    0.0000 C=    0.0000
 XYZ=   -7.1650    2.6880    2.5021 Q=    0.4100 A=    0.0000 R=    0.0000 C=    0.0000
 XYZ=   -8.6856    3.0530    2.9727 Q=    0.4100 A=    0.0000 R=    0.0000 C=    0.0000
 XYZ=    5.4511    3.1900   -2.5962 Q=   -0.8200 A=    0.0000 R=    0.0000 C=    0.0000
 XYZ=    6.3599    3.5197   -2.3403 Q=    0.4100 A=    0.0000 R=    0.0000 C=    0.0000
 XYZ=    5.3189    3.3075   -3.5804 Q=    0.4100 A=    0.0000 R=    0.0000 C=    0.0000
 XYZ=    4.6136    0.9170    6.5489 Q=   -0.8200 A=    0.0000 R=    0.0000 C=    0.0000
 XYZ=    5.1414    0.9305    7.3981 Q=    0.4100 A=    0.0000 R=    0.0000 C=    0.0000
 XYZ=    4.5934    1.8357    6.1544 Q=    0.4100 A=    0.0000 R=    0.0000 C=    0.0000
 XYZ=    1.4073    1.3293    8.3796 Q=   -0.8200 A=    0.0000 R=    0.0000 C=    0.0000
 XYZ=    1.7944    0.5730    7.8522 Q=    0.4100 A=    0.0000 R=    0.0000 C=    0.0000
 XYZ=    0.5252    1.0527    8.7608 Q=    0.4100 A=    0.0000 R=    0.0000 C=    0.0000
 XYZ=   -6.0562    2.4685    5.9503 Q=   -0.8200 A=    0.0000 R=    0.0000 C=    0.0000
 XYZ=   -6.2784    2.5205    6.9239 Q=    0.4100 A=    0.0000 R=    0.0000 C=    0.0000
 XYZ=   -5.6981    1.5591    5.7383 Q=    0.4100 A=    0.0000 R=    0.0000 C=    0.0000
 XYZ=    5.5639   -3.9183    5.5209 Q=   -0.8200 A=    0.0000 R=    0.0000 C=    0.0000
 XYZ=    5.2638   -3.2667    4.8241 Q=    0.4100 A=    0.0000 R=    0.0000 C=    0.0000
 XYZ=    4.8013   -4.1256    6.1337 Q=    0.4100 A=    0.0000 R=    0.0000 C=    0.0000
 XYZ=    4.6271   -7.2393   -0.9654 Q=   -0.8200 A=    0.0000 R=    0.0000 C=    0.0000
 XYZ=    5.4321   -7.7731   -0.7063 Q=    0.4100 A=    0.0000 R=    0.0000 C=    0.0000
 XYZ=    4.8268   -6.7159   -1.7938 Q=    0.4100 A=    0.0000 R=    0.0000 C=    0.0000
 XYZ=    6.0822   -0.6741    5.5581 Q=   -0.8200 A=    0.0000 R=    0.0000 C=    0.0000
 XYZ=    6.4170   -1.2278    6.3206 Q=    0.4100 A=    0.0000 R=    0.0000 C=    0.0000
 XYZ=    5.5174    0.0720    5.9109 Q=    0.4100 A=    0.0000 R=    0.0000 C=    0.0000
 XYZ=    1.4919    6.8032    5.7418 Q=   -0.8200 A=    0.0000 R=    0.0000 C=    0.0000
 XYZ=    1.7808    6.2212    4.9816 Q=    0.4100 A=    0.0000 R=    0.0000 C=    0.0000
 XYZ=    0.6341    6.4557    6.1204 Q=    0.4100 A=    0.0000 R=    0.0000 C=    0.0000
 XYZ=    5.3252   -4.6772   -5.9534 Q=   -0.8200 A=    0.0000 R=    0.0000 C=    0.0000
 XYZ=    5.3888   -4.3703   -5.0038 Q=    0.4100 A=    0.0000 R=    0.0000 C=    0.0000
 XYZ=    6.1916   -5.0945   -6.2275 Q=    0.4100 A=    0.0000 R=    0.0000 C=    0.0000
 XYZ=   -1.7528   -6.2154    5.3325 Q=   -0.8200 A=    0.0000 R=    0.0000 C=    0.0000
 XYZ=   -0.9892   -5.8856    4.7773 Q=    0.4100 A=    0.0000 R=    0.0000 C=    0.0000
 XYZ=   -1.4512   -6.9916    5.8864 Q=    0.4100 A=    0.0000 R=    0.0000 C=    0.0000
 XYZ=    1.7374   -4.9049    7.1745 Q=   -0.8200 A=    0.0000 R=    0.0000 C=    0.0000
 XYZ=    2.6444   -4.4941    7.0823 Q=    0.4100 A=    0.0000 R=    0.0000 C=    0.0000
 XYZ=    1.0402   -4.2326    6.9255 Q=    0.4100 A=    0.0000 R=    0.0000 C=    0.0000
 XYZ=   -5.1298    6.7386   -0.3191 Q=   -0.8200 A=    0.0000 R=    0.0000 C=    0.0000
 XYZ=   -4.2806    7.1801   -0.6088 Q=    0.4100 A=    0.0000 R=    0.0000 C=    0.0000
 XYZ=   -5.6910    7.3946    0.1857 Q=    0.4100 A=    0.0000 R=    0.0000 C=    0.0000
 XYZ=   -2.1644   -0.6820   -9.8519 Q=   -0.8200 A=    0.0000 R=    0.0000 C=    0.0000
 XYZ=   -1.6523   -1.2598   -9.2163 Q=    0.4100 A=    0.0000 R=    0.0000 C=    0.0000
 XYZ=   -2.9883   -1.1637  -10.1504 Q=    0.4100 A=    0.0000 R=    0.0000 C=    0.0000
 XYZ=   -3.2169    8.2419   -0.9163 Q=   -0.8200 A=    0.0000 R=    0.0000 C=    0.0000
 XYZ=   -3.4246    9.1898   -0.6747 Q=    0.4100 A=    0.0000 R=    0.0000 C=    0.0000
 XYZ=   -2.3204    7.9933   -0.5496 Q=    0.4100 A=    0.0000 R=    0.0000 C=    0.0000
 XYZ=   -1.2773   -2.6639    8.4733 Q=   -0.8200 A=    0.0000 R=    0.0000 C=    0.0000
 XYZ=   -0.6236   -2.8516    7.7401 Q=    0.4100 A=    0.0000 R=    0.0000 C=    0.0000
 XYZ=   -0.9244   -3.0270    9.3356 Q=    0.4100 A=    0.0000 R=    0.0000 C=    0.0000
 XYZ=   -0.7951    6.2988    6.3796 Q=   -0.8200 A=    0.0000 R=    0.0000 C=    0.0000
 XYZ=   -1.4172    6.6524    5.6810 Q=    0.4100 A=    0.0000 R=    0.0000 C=    0.0000
 XYZ=   -1.3242    5.9762    7.1645 Q=    0.4100 A=    0.0000 R=    0.0000 C=    0.0000
 XYZ=    0.5209    8.2985   -2.8211 Q=   -0.8200 A=    0.0000 R=    0.0000 C=    0.0000
 XYZ=   -0.1864    8.5208   -3.4922 Q=    0.4100 A=    0.0000 R=    0.0000 C=    0.0000
 XYZ=    0.9343    7.4177   -3.0520 Q=    0.4100 A=    0.0000 R=    0.0000 C=    0.0000
 XYZ=   -0.5201   -7.4867    2.5942 Q=   -0.8200 A=    0.0000 R=    0.0000 C=    0.0000
 XYZ=   -0.0996   -8.0842    1.9113 Q=    0.4100 A=    0.0000 R=    0.0000 C=    0.0000
 XYZ=   -1.4045   -7.1649    2.2559 Q=    0.4100 A=    0.0000 R=    0.0000 C=    0.0000
 XYZ=    4.6865    5.9250    0.8207 Q=   -0.8200 A=    0.0000 R=    0.0000 C=    0.0000
 XYZ=    3.9156    6.4818    0.5114 Q=    0.4100 A=    0.0000 R=    0.0000 C=    0.0000
 XYZ=    5.5249    6.4691    0.7880 Q=    0.4100 A=    0.0000 R=    0.0000 C=    0.0000
 XYZ=   -2.0032    1.6575   -9.6378 Q=   -0.8200 A=    0.0000 R=    0.0000 C=    0.0000
 XYZ=   -2.0544    1.8651   -8.6610 Q=    0.4100 A=    0.0000 R=    0.0000 C=    0.0000
 XYZ=   -2.0768    0.6694   -9.7728 Q=    0.4100 A=    0.0000 R=    0.0000 C=    0.0000
 XYZ=   -3.4411    8.1929   -3.2919 Q=   -0.8200 A=    0.0000 R=    0.0000 C=    0.0000
 XYZ=   -3.4892    8.1732   -2.2932 Q=    0.4100 A=    0.0000 R=    0.0000 C=    0.0000
 XYZ=   -3.4081    7.2570   -3.6424 Q=    0.4100 A=    0.0000 R=    0.0000 C=    0.0000
 XYZ=    1.0178   -1.6743   -9.9293 Q=   -0.8200 A=    0.0000 R=    0.0000 C=    0.0000
 XYZ=    1.6045   -2.4485   -9.6916 Q=    0.4100 A=    0.0000 R=    0.0000 C=    0.0000
 XYZ=    0.1137   -1.8039   -9.5220 Q=    0.4100 A=    0.0000 R=    0.0000 C=    0.0000
 XYZ=    5.4750    3.3083   -5.0280 Q=   -0.8200 A=    0.0000 R=    0.0000 C=    0.0000
 XYZ=    6.3376    3.7902   -4.8737 Q=    0.4100 A=    0.0000 R=    0.0000 C=    0.0000
 XYZ=    5.6579    2.4325   -5.4747 Q=    0.4100 A=    0.0000 R=    0.0000 C=    0.0000
 XYZ=    3.6065    4.3161   -5.9383 Q=   -0.8200 A=    0.0000 R=    0.0000 C=    0.0000
 XYZ=    4.4878    3.9477   -5.6423 Q=    0.4100 A=    0.0000 R=    0.0000 C=    0.0000
 XYZ=    3.6884    5.3026   -6.0804 Q=    0.4100 A=    0.0000 R=    0.0000 C=    0.0000
 XYZ=   -2.7639    7.2790    5.2234 Q=   -0.8200 A=    0.0000 R=    0.0000 C=    0.0000
 XYZ=   -3.2845    6.4641    5.4782 Q=    0.4100 A=    0.0000 R=    0.0000 C=    0.0000
 XYZ=   -3.2114    8.0910    5.5981 Q=    0.4100 A=    0.0000 R=    0.0000 C=    0.0000
 XYZ=   -1.9179    8.1640    3.1060 Q=   -0.8200 A=    0.0000 R=    0.0000 C=    0.0000
 XYZ=   -2.3497    7.8686    3.9583 Q=    0.4100 A=    0.0000 R=    0.0000 C=    0.0000
 XYZ=   -2.3920    8.9713    2.7546 Q=    0.4100 A=    0.0000 R=    0.0000 C=    0.0000
 XYZ=   -5.1915   -6.5453   -2.6167 Q=   -0.8200 A=    0.0000 R=    0.0000 C=    0.0000
 XYZ=   -6.1668   -6.4043   -2.4469 Q=    0.4100 A=    0.0000 R=    0.0000 C=    0.0000
 XYZ=   -4.8946   -5.9535   -3.3662 Q=    0.4100 A=    0.0000 R=    0.0000 C=    0.0000
 XYZ=    7.7153    0.3649    4.2169 Q=   -0.8200 A=    0.0000 R=    0.0000 C=    0.0000
 XYZ=    7.2480    1.0279    3.6320 Q=    0.4100 A=    0.0000 R=    0.0000 C=    0.0000
 XYZ=    7.0427   -0.2544    4.6220 Q=    0.4100 A=    0.0000 R=    0.0000 C=    0.0000
 XYZ=   -7.7178   -2.0028    3.1408 Q=   -0.8200 A=    0.0000 R=    0.0000 C=    0.0000
 XYZ=   -7.2533   -2.4093    2.3540 Q=    0.4100 A=    0.0000 R=    0.0000 C=    0.0000
 XYZ=   -7.3661   -1.0795    3.2950 Q=    0.4100 A=    0.0000 R=    0.0000 C=    0.0000
 XYZ=    5.7603   -6.4968    2.8053 Q=   -0.8200 A=    0.0000 R=    0.0000 C=    0.0000
 XYZ=    5.4566   -6.2356    1.8890 Q=    0.4100 A=    0.0000 R=    0.0000 C=    0.0000
 XYZ=    4.9645   -6.7111    3.3717 Q=    0.4100 A=    0.0000 R=    0.0000 C=    0.0000
 XYZ=    6.6929   -1.6208   -7.0908 Q=   -0.8200 A=    0.0000 R=    0.0000 C=    0.0000
 XYZ=    7.0448   -1.2591   -6.2275 Q=    0.4100 A=    0.0000 R=    0.0000 C=    0.0000
 XYZ=    5.7536   -1.9384   -6.9609 Q=    0.4100 A=    0.0000 R=    0.0000 C=    0.0000
 XYZ=    0.7397   -8.9875    1.1451 Q=   -0.8200 A=    0.0000 R=    0.0000 C=    0.0000
 XYZ=    1.3447   -8.4260    0.5805 Q=    0.4100 A=    0.0000 R=    0.0000 C=    0.0000
 XYZ=    0.2970   -9.6785    0.5737 Q=    0.4100 A=    0.0000 R=    0.0000 C=    0.0000
 XYZ=   -9.2339   -0.7618   -0.3184 Q=   -0.8200 A=    0.0000 R=    0.0000 C=    0.0000
 XYZ=   -9.5632    0.1731   -0.4507 Q=    0.4100 A=    0.0000 R=    0.0000 C=    0.0000
 XYZ=   -8.2659   -0.8122   -0.5644 Q=    0.4100 A=    0.0000 R=    0.0000 C=    0.0000
 XYZ=   -1.1011    3.3870    8.4438 Q=   -0.8200 A=    0.0000 R=    0.0000 C=    0.0000
 XYZ=   -0.1748    3.5057    8.0860 Q=    0.4100 A=    0.0000 R=    0.0000 C=    0.0000
 XYZ=   -1.2245    2.4403    8.7413 Q=    0.4100 A=    0.0000 R=    0.0000 C=    0.0000
 XYZ=    1.4620    3.6685    8.0357 Q=   -0.8200 A=    0.0000 R=    0.0000 C=    0.0000
 XYZ=    1.6804    4.0691    8.9256 Q=    0.4100 A=    0.0000 R=    0.0000 C=    0.0000
 XYZ=    1.4700    2.6711    8.1082 Q=    0.4100 A=    0.0000 R=    0.0000 C=    0.0000
 XYZ=   -2.7484    5.1811    7.7856 Q=   -0.8200 A=    0.0000 R=    0.0000 C=    0.0000
 XYZ=   -3.1612    5.3135    6.8844 Q=    0.4100 A=    0.0000 R=    0.0000 C=    0.0000
 XYZ=   -2.0061    4.5144    7.7175 Q=    0.4100 A=    0.0000 R=    0.0000 C=    0.0000
 XYZ=   -5.2578   -2.6822    6.9648 Q=   -0.8200 A=    0.0000 R=    0.0000 C=    0.0000
 XYZ=   -4.9569   -2.2601    6.1096 Q=    0.4100 A=    0.0000 R=    0.0000 C=    0.0000
 XYZ=   -4.4615   -3.0129    7.4714 Q=    0.4100 A=    0.0000 R=    0.0000 C=    0.0000
 XYZ=   -2.8852   -7.2789    1.6493 Q=   -0.8200 A=    0.0000 R=    0.0000 C=    0.0000
 XYZ=   -2.7662   -8.2658    1.5401 Q=    0.4100 A=    0.0000 R=    0.0000 C=    0.0000
 XYZ=   -3.4911   -6.9349    0.9319 Q=    0.4100 A=    0.0000 R=    0.0000 C=    0.0000
 XYZ=   -5.9162    2.9465   -6.8724 Q=   -0.8200 A=    0.0000 R=    0.0000 C=    0.0000
 XYZ=   -5.3355    3.5279   -7.4423 Q=    0.4100 A=    0.0000 R=    0.0000 C=    0.0000
 XYZ=   -5.7346    1.9858   -7.0826 Q=    0.4100 A=    0.0000 R=    0.0000 C=    0.0000
 XYZ=    5.6329    0.6582   -7.3647 Q=   -0.8200 A=    0.0000 R=    0.0000 C=    0.0000
 XYZ=    6.3020    1.2587   -6.9268 Q=    0.4100 A=    0.0000 R=    0.0000 C=    0.0000
 XYZ=    6.0202   -0.2588   -7.4601 Q=    0.4100 A=    0.0000 R=    0.0000 C=    0.0000
 XYZ=   -3.4716   -6.3835    3.8857 Q=   -0.8200 A=    0.0000 R=    0.0000 C=    0.0000
 XYZ=   -2.6918   -6.2118    4.4877 Q=    0.4100 A=    0.0000 R=    0.0000 C=    0.0000
 XYZ=   -3.1443   -6.7319    3.0074 Q=    0.4100 A=    0.0000 R=    0.0000 C=    0.0000
 XYZ=    1.1073    8.6058   -0.6408 Q=   -0.8200 A=    0.0000 R=    0.0000 C=    0.0000
 XYZ=    0.8458    8.4432   -1.5922 Q=    0.4100 A=    0.0000 R=    0.0000 C=    0.0000
 XYZ=    1.9706    8.1394   -0.4480 Q=    0.4100 A=    0.0000 R=    0.0000 C=    0.0000
 XYZ=    3.3148   -6.8338    3.6571 Q=   -0.8200 A=    0.0000 R=    0.0000 C=    0.0000
 XYZ=    2.7386   -6.6361    4.4503 Q=    0.4100 A=    0.0000 R=    0.0000 C=    0.0000
 XYZ=    2.8711   -7.5253    3.0870 Q=    0.4100 A=    0.0000 R=    0.0000 C=    0.0000
 XYZ=   -7.1107    5.4057    3.6184 Q=   -0.8200 A=    0.0000 R=    0.0000 C=    0.0000
 XYZ=   -7.5002    5.1017    4.4879 Q=    0.4100 A=    0.0000 R=    0.0000 C=    0.0000
 XYZ=   -7.4128    4.7951    2.8863 Q=    0.4100 A=    0.0000 R=    0.0000 C=    0.0000
 XYZ=    2.6275    0.1055   -9.7781 Q=   -0.8200 A=    0.0000 R=    0.0000 C=    0.0000
 XYZ=    2.0855    0.9427   -9.8517 Q=    0.4100 A=    0.0000 R=    0.0000 C=    0.0000
 XYZ=    2.0216   -0.6888   -9.8228 Q=    0.4100 A=    0.0000 R=    0.0000 C=    0.0000
 XYZ=    1.7979   -6.5849    5.4689 Q=   -0.8200 A=    0.0000 R=    0.0000 C=    0.0000
 XYZ=    1.2410   -7.3486    5.7956 Q=    0.4100 A=    0.0000 R=    0.0000 C=    0.0000
 XYZ=    1.8387   -5.8768    6.1738 Q=    0.4100 A=    0.0000 R=    0.0000 C=    0.0000
 XYZ=   -5.0753   -5.0386    3.3834 Q=   -0.8200 A=    0.0000 R=    0.0000 C=    0.0000
 XYZ=   -5.5211   -4.6416    4.1857 Q=    0.4100 A=    0.0000 R=    0.0000 C=    0.0000
 XYZ=   -4.3001   -5.5985    3.6758 Q=    0.4100 A=    0.0000 R=    0.0000 C=    0.0000
 XYZ=   -4.7987   -6.6360    0.0426 Q=   -0.8200 A=    0.0000 R=    0.0000 C=    0.0000
 XYZ=   -4.8856   -6.3909   -0.9230 Q=    0.4100 A=    0.0000 R=    0.0000 C=    0.0000
 XYZ=   -4.8573   -7.6294    0.1409 Q=    0.4100 A=    0.0000 R=    0.0000 C=    0.0000
 XYZ=    0.5515    8.4253    4.0068 Q=   -0.8200 A=    0.0000 R=    0.0000 C=    0.0000
 XYZ=   -0.4326    8.4407    3.8295 Q=    0.4100 A=    0.0000 R=    0.0000 C=    0.0000
 XYZ=    0.7378    7.8486    4.8022 Q=    0.4100 A=    0.0000 R=    0.0000 C=    0.0000
 XYZ=    1.3913    2.1070  -10.2800 Q=   -0.8200 A=    0.0000 R=    0.0000 C=    0.0000
 XYZ=    0.7325    2.2283   -9.5374 Q=    0.4100 A=    0.0000 R=    0.0000 C=    0.0000
 XYZ=    2.1124    2.7954  -10.2014 Q=    0.4100 A=    0.0000 R=    0.0000 C=    0.0000
 XYZ=    9.0140   -2.0787   -0.8861 Q=   -0.8200 A=    0.0000 R=    0.0000 C=    0.0000
 XYZ=    8.6751   -1.1456   -0.7659 Q=    0.4100 A=    0.0000 R=    0.0000 C=    0.0000
 XYZ=    9.4103   -2.4025   -0.0269 Q=    0.4100 A=    0.0000 R=    0.0000 C=    0.0000
 XYZ=    4.7015   -2.7604   -9.6374 Q=   -0.8200 A=    0.0000 R=    0.0000 C=    0.0000
 XYZ=    4.4730   -2.5317   -8.6911 Q=    0.4100 A=    0.0000 R=    0.0000 C=    0.0000
 XYZ=    5.5256   -3.3267   -9.6537 Q=    0.4100 A=    0.0000 R=    0.0000 C=    0.0000
 XYZ=   -2.4708    4.8059   -7.9362 Q=   -0.8200 A=    0.0000 R=    0.0000 C=    0.0000
 XYZ=   -2.0618    5.5788   -8.4213 Q=    0.4100 A=    0.0000 R=    0.0000 C=    0.0000
 XYZ=   -3.4664    4.8499   -8.0185 Q=    0.4100 A=    0.0000 R=    0.0000 C=    0.0000
 XYZ=   -1.8975   -0.5605    9.1674 Q=   -0.8200 A=    0.0000 R=    0.0000 C=    0.0000
 XYZ=   -1.6356   -1.4417    8.7737 Q=    0.4100 A=    0.0000 R=    0.0000 C=    0.0000
 XYZ=   -2.8366   -0.6132    9.5070 Q=    0.4100 A=    0.0000 R=    0.0000 C=    0.0000
 XYZ=   -1.3587    8.6752   -4.3982 Q=   -0.8200 A=    0.0000 R=    0.0000 C=    0.0000
 XYZ=   -2.1969    8.4805   -3.8887 Q=    0.4100 A=    0.0000 R=    0.0000 C=    0.0000
 XYZ=   -1.0900    7.8654   -4.9198 Q=    0.4100 A=    0.0000 R=    0.0000 C=    0.0000
 XYZ=   -6.1849   -5.1291    1.3211 Q=   -0.8200 A=    0.0000 R=    0.0000 C=    0.0000
 XYZ=   -5.6949   -5.7140    0.6747 Q=    0.4100 A=    0.0000 R=    0.0000 C=    0.0000
 XYZ=   -5.6254   -4.9945    2.1390 Q=    0.4100 A=    0.0000 R=    0.0000 C=    0.0000
 XYZ=   -4.2573   -7.7267   -5.4198 Q=   -0.8200 A=    0.0000 R=    0.0000 C=    0.0000
 XYZ=   -4.2878   -6.8560   -4.9289 Q=    0.4100 A=    0.0000 R=    0.0000 C=    0.0000
 XYZ=   -4.2316   -8.4795   -4.7620 Q=    0.4100 A=    0.0000 R=    0.0000 C=    0.0000
 XYZ=   -9.0375    3.0783    0.6426 Q=   -0.8200 A=    0.0000 R=    0.0000 C=    0.0000
 XYZ=   -8.4600    3.5376   -0.0324 Q=    0.4100 A=    0.0000 R=    0.0000 C=    0.0000
 XYZ=   -8.7788    3.3774    1.5612 Q=    0.4100 A=    0.0000 R=    0.0000 C=    0.0000
 XYZ=    7.1453    5.3407    2.7353 Q=   -0.8200 A=    0.0000 R=    0.0000 C=    0.0000
 XYZ=    6.2968    4.8825    3.0002 Q=    0.4100 A=    0.0000 R=    0.0000 C=    0.0000
 XYZ=    7.9081    4.6983    2.8092 Q=    0.4100 A=    0.0000 R=    0.0000 C=    0.0000
 XYZ=    7.6899   -6.6951   -1.9211 Q=   -0.8200 A=    0.0000 R=    0.0000 C=    0.0000
 XYZ=    6.8140   -6.3269   -2.2329 Q=    0.4100 A=    0.0000 R=    0.0000 C=    0.0000
 XYZ=    8.1533   -7.1447   -2.6848 Q=    0.4100 A=    0.0000 R=    0.0000 C=    0.0000
 XYZ=    7.7387   -0.8865   -4.9875 Q=   -0.8200 A=    0.0000 R=    0.0000 C=    0.0000
 XYZ=    8.3002   -0.0814   -5.1791 Q=    0.4100 A=    0.0000 R=    0.0000 C=    0.0000
 XYZ=    8.3266   -1.6414   -4.6967 Q=    0.4100 A=    0.0000 R=    0.0000 C=    0.0000
 XYZ=    4.5520   -6.7839   -7.1332 Q=   -0.8200 A=    0.0000 R=    0.0000 C=    0.0000
 XYZ=    5.0945   -6.7450   -7.9723 Q=    0.4100 A=    0.0000 R=    0.0000 C=    0.0000
 XYZ=    4.6867   -5.9423   -6.6100 Q=    0.4100 A=    0.0000 R=    0.0000 C=    0.0000
 XYZ=   -0.6016   -6.7922   -8.0721 Q=   -0.8200 A=    0.0000 R=    0.0000 C=    0.0000
 XYZ=    0.3655   -6.5501   -8.1510 Q=    0.4100 A=    0.0000 R=    0.0000 C=    0.0000
 XYZ=   -0.7591   -7.2549   -7.1996 Q=    0.4100 A=    0.0000 R=    0.0000 C=    0.0000
 XYZ=   -9.4733    0.5800    3.1985 Q=   -0.8200 A=    0.0000 R=    0.0000 C=    0.0000
 XYZ=   -8.5092    0.4948    3.4498 Q=    0.4100 A=    0.0000 R=    0.0000 C=    0.0000
 XYZ=   -9.7287   -0.1759    2.5957 Q=    0.4100 A=    0.0000 R=    0.0000 C=    0.0000
 XYZ=    8.6466    3.2001    2.8979 Q=   -0.8200 A=    0.0000 R=    0.0000 C=    0.0000
 XYZ=    9.0276    3.0505    3.8103 Q=    0.4100 A=    0.0000 R=    0.0000 C=    0.0000
 XYZ=    7.9215    2.5333    2.7260 Q=    0.4100 A=    0.0000 R=    0.0000 C=    0.0000
 XYZ=    9.4942   -0.7660    2.2638 Q=   -0.8200 A=    0.0000 R=    0.0000 C=    0.0000
 XYZ=    9.6460   -0.4164    3.1883 Q=    0.4100 A=    0.0000 R=    0.0000 C=    0.0000
 XYZ=    8.5119   -0.8126    2.0821 Q=    0.4100 A=    0.0000 R=    0.0000 C=    0.0000
 XYZ=    7.0405   -4.5803    3.6200 Q=   -0.8200 A=    0.0000 R=    0.0000 C=    0.0000
 XYZ=    6.6492   -4.3353    4.5071 Q=    0.4100 A=    0.0000 R=    0.0000 C=    0.0000
 XYZ=    6.6596   -5.4540    3.3176 Q=    0.4100 A=    0.0000 R=    0.0000 C=    0.0000
 XYZ=   -7.4537    4.4872    5.7711 Q=   -0.8200 A=    0.0000 R=    0.0000 C=    0.0000
 XYZ=   -7.0349    3.5923    5.9252 Q=    0.4100 A=    0.0000 R=    0.0000 C=    0.0000
 XYZ=   -6.9217    5.1900    6.2435 Q=    0.4100 A=    0.0000 R=    0.0000 C=    0.0000
 XYZ=   -3.3746   -3.7318    7.9791 Q=   -0.8200 A=    0.0000 R=    0.0000 C=    0.0000
 XYZ=   -2.6571   -3.1099    8.2930 Q=    0.4100 A=    0.0000 R=    0.0000 C=    0.0000
 XYZ=   -3.3493   -4.5711    8.5222 Q=    0.4100 A=    0.0000 R=    0.0000 C=    0.0000
 XYZ=    9.1231    2.2276   -0.8846 Q=   -0.8200 A=    0.0000 R=    0.0000 C=    0.0000
 XYZ=    8.6356    1.3610   -0.7779 Q=    0.4100 A=    0.0000 R=    0.0000 C=    0.0000
 XYZ=    9.6436    2.4217   -0.0531 Q=    0.4100 A=    0.0000 R=    0.0000 C=    0.0000
 XYZ=    4.7728   -2.0426    8.0423 Q=   -0.8200 A=    0.0000 R=    0.0000 C=    0.0000
 XYZ=    4.9424   -2.2361    9.0086 Q=    0.4100 A=    0.0000 R=    0.0000 C=    0.0000
 XYZ=    5.6454   -1.9471    7.5634 Q=    0.4100 A=    0.0000 R=    0.0000 C=    0.0000
 XYZ=    9.0449   -2.8164   -4.1561 Q=   -0.8200 A=    0.0000 R=    0.0000 C=    0.0000
 XYZ=    9.8816   -2.6740   -3.6273 Q=    0.4100 A=    0.0000 R=    0.0000 C=    0.0000
 XYZ=    8.3620   -3.2701   -3.5836 Q=    0.4100 A=    0.0000 R=    0.0000 C=    0.0000
 XYZ=   -0.7076    1.2979    9.5928 Q=   -0.8200 A=    0.0000 R=    0.0000 C=    0.0000
 XYZ=   -1.2248    0.4540    9.4502 Q=    0.4100 A=    0.0000 R=    0.0000 C=    0.0000
 XYZ=   -0.6529    1.4939   10.5719 Q=    0.4100 A=    0.0000 R=    0.0000 C=    0.0000
 XYZ=   -1.9536   -8.1636   -6.4332 Q=   -0.8200 A=    0.0000 R=    0.0000 C=    0.0000
 XYZ=   -2.2251   -8.4956   -7.3366 Q=    0.4100 A=    0.0000 R=    0.0000 C=    0.0000
 XYZ=   -2.7706   -7.9648   -5.8919 Q=    0.4100 A=    0.0000 R=    0.0000 C=    0.0000
 XYZ=    2.2985   -6.7595   -8.0438 Q=   -0.8200 A=    0.0000 R=    0.0000 C=    0.0000
 XYZ=    1.8468   -7.5532   -7.6362 Q=    0.4100 A=    0.0000 R=    0.0000 C=    0.0000
 XYZ=    3.2535   -6.7315   -7.7486 Q=    0.4100 A=    0.0000 R=    0.0000 C=    0.0000
 XYZ=   -6.1345   -4.2445    5.2100 Q=   -0.8200 A=    0.0000 R=    0.0000 C=    0.0000
 XYZ=   -7.0443   -3.8334    5.1532 Q=    0.4100 A=    0.0000 R=    0.0000 C=    0.0000
 XYZ=   -5.6004   -3.7762    5.9139 Q=    0.4100 A=    0.0000 R=    0.0000 C=    0.0000
 XYZ=   -0.1940    4.6967  -10.0364 Q=   -0.8200 A=    0.0000 R=    0.0000 C=    0.0000
 XYZ=   -0.3818    3.9733  -10.7008 Q=    0.4100 A=    0.0000 R=    0.0000 C=    0.0000
 XYZ=    0.0705    4.2869   -9.1633 Q=    0.4100 A=    0.0000 R=    0.0000 C=    0.0000
 XYZ=   -5.5715   -1.3728   -8.7679 Q=   -0.8200 A=    0.0000 R=    0.0000 C=    0.0000
 XYZ=   -6.0953   -2.0034   -8.1951 Q=    0.4100 A=    0.0000 R=    0.0000 C=    0.0000
 XYZ=   -5.0437   -1.8928   -9.4395 Q=    0.4100 A=    0.0000 R=    0.0000 C=    0.0000
 XYZ=   -5.9380   -5.3322   -7.0033 Q=   -0.8200 A=    0.0000 R=    0.0000 C=    0.0000
 XYZ=   -5.3617   -5.6260   -7.7660 Q=    0.4100 A=    0.0000 R=    0.0000 C=    0.0000
 XYZ=   -6.1180   -4.3516   -7.0801 Q=    0.4100 A=    0.0000 R=    0.0000 C=    0.0000
 XYZ=   -8.3423    3.0772   -6.4031 Q=   -0.8200 A=    0.0000 R=    0.0000 C=    0.0000
 XYZ=   -8.9289    3.7778   -6.8097 Q=    0.4100 A=    0.0000 R=    0.0000 C=    0.0000
 XYZ=   -7.3933    3.2391   -6.6737 Q=    0.4100 A=    0.0000 R=    0.0000 C=    0.0000
 XYZ=   -0.2626   -0.7017  -11.6287 Q=   -0.8200 A=    0.0000 R=    0.0000 C=    0.0000
 XYZ=    0.4232   -1.0850  -11.0099 Q=    0.4100 A=    0.0000 R=    0.0000 C=    0.0000
 XYZ=   -1.1340   -0.6125  -11.1463 Q=    0.4100 A=    0.0000 R=    0.0000 C=    0.0000
 XYZ=    8.4699   -5.3441    0.0506 Q=   -0.8200 A=    0.0000 R=    0.0000 C=    0.0000
 XYZ=    9.4462   -5.1298    0.0191 Q=    0.4100 A=    0.0000 R=    0.0000 C=    0.0000
 XYZ=    8.1938   -5.7682   -0.8119 Q=    0.4100 A=    0.0000 R=    0.0000 C=    0.0000
 XYZ=    0.1308   -9.5143    3.8282 Q=   -0.8200 A=    0.0000 R=    0.0000 C=    0.0000
 XYZ=    0.4100  -10.0898    3.0596 Q=    0.4100 A=    0.0000 R=    0.0000 C=    0.0000
 XYZ=    0.0630   -8.5636    3.5253 Q=    0.4100 A=    0.0000 R=    0.0000 C=    0.0000
 XYZ=    7.7283    3.7704   -1.8603 Q=   -0.8200 A=    0.0000 R=    0.0000 C=    0.0000
 XYZ=    8.3698    3.1242   -1.4469 Q=    0.4100 A=    0.0000 R=    0.0000 C=    0.0000
 XYZ=    7.7418    4.6282   -1.3465 Q=    0.4100 A=    0.0000 R=    0.0000 C=    0.0000
 XYZ=    0.6559   -5.2372    9.3917 Q=   -0.8200 A=    0.0000 R=    0.0000 C=    0.0000
 XYZ=    0.8791   -4.7744    8.5337 Q=    0.4100 A=    0.0000 R=    0.0000 C=    0.0000
 XYZ=    1.4706   -5.6984    9.7432 Q=    0.4100 A=    0.0000 R=    0.0000 C=    0.0000
 XYZ=   -4.2858    2.2665   -9.9933 Q=   -0.8200 A=    0.0000 R=    0.0000 C=    0.0000
 XYZ=   -4.8425    1.4619  -10.2001 Q=    0.4100 A=    0.0000 R=    0.0000 C=    0.0000
 XYZ=   -3.3542    1.9789   -9.7706 Q=    0.4100 A=    0.0000 R=    0.0000 C=    0.0000
 XYZ=    1.4255   -5.6526   -9.8872 Q=   -0.8200 A=    0.0000 R=    0.0000 C=    0.0000
 XYZ=    2.0414   -4.9261  -10.1923 Q=    0.4100 A=    0.0000 R=    0.0000 C=    0.0000
 XYZ=    1.7883   -6.0688   -9.0534 Q=    0.4100 A=    0.0000 R=    0.0000 C=    0.0000
 XYZ=   -9.5677    1.4896   -2.9879 Q=   -0.8200 A=    0.0000 R=    0.0000 C=    0.0000
 XYZ=   -9.9360    1.5080   -2.0583 Q=    0.4100 A=    0.0000 R=    0.0000 C=    0.0000
 XYZ=  -10.2882    1.2192   -3.6265 Q=    0.4100 A=    0.0000 R=    0.0000 C=    0.0000
 XYZ=   -0.5988   -4.3876  -10.3068 Q=   -0.8200 A=    0.0000 R=    0.0000 C=    0.0000
 XYZ=    0.1625   -4.9758  -10.0337 Q=    0.4100 A=    0.0000 R=    0.0000 C=    0.0000
 XYZ=   -0.5921   -4.2737  -11.3003 Q=    0.4100 A=    0.0000 R=    0.0000 C=    0.0000
 XYZ=   -4.6891    4.2382   -8.4395 Q=   -0.8200 A=    0.0000 R=    0.0000 C=    0.0000
 XYZ=   -5.1713    4.9740   -8.9149 Q=    0.4100 A=    0.0000 R=    0.0000 C=    0.0000
 XYZ=   -4.6154    3.4439   -9.0426 Q=    0.4100 A=    0.0000 R=    0.0000 C=    0.0000
 XYZ=    2.8251    2.1098   10.3030 Q=   -0.8200 A=    0.0000 R=    0.0000 C=    0.0000
 XYZ=    3.7241    2.3175    9.9174 Q=    0.4100 A=    0.0000 R=    0.0000 C=    0.0000
 XYZ=    2.2897    1.5885    9.6384 Q=    0.4100 A=    0.0000 R=    0.0000 C=    0.0000
 XYZ=   -7.1152   -1.2833    6.6083 Q=   -0.8200 A=    0.0000 R=    0.0000 C=    0.0000
 XYZ=   -7.7334   -1.8276    6.0412 Q=    0.4100 A=    0.0000 R=    0.0000 C=    0.0000
 XYZ=   -6.3796   -1.8661    6.9536 Q=    0.4100 A=    0.0000 R=    0.0000 C=    0.0000
 XYZ=   -9.7955   -1.3415    1.9832 Q=   -0.8200 A=    0.0000 R=    0.0000 C=    0.0000
 XYZ=   -9.7270   -1.2827    0.9872 Q=    0.4100 A=    0.0000 R=    0.0000 C=    0.0000
 XYZ=   -8.9271   -1.6657    2.3584 Q=    0.4100 A=    0.0000 R=    0.0000 C=    0.0000
 XYZ=    7.3218    1.9438   -6.3806 Q=   -0.8200 A=    0.0000 R=    0.0000 C=    0.0000
 XYZ=    7.4426    2.7598   -6.9459 Q=    0.4100 A=    0.0000 R=    0.0000 C=    0.0000
 XYZ=    8.1959    1.6951   -5.9633 Q=    0.4100 A=    0.0000 R=    0.0000 C=    0.0000
 XYZ=    1.1972   10.4665    3.0271 Q=   -0.8200 A=    0.0000 R=    0.0000 C=    0.0000
 XYZ=    0.9148    9.5526    3.3186 Q=    0.4100 A=    0.0000 R=    0.0000 C=    0.0000
 XYZ=    1.3365   10.4722    2.0368 Q=    0.4100 A=    0.0000 R=    0.0000 C=    0.0000
 XYZ=   -4.8509   -8.9186   -3.1507 Q=   -0.8200 A=    0.0000 R=    0.0000 C=    0.0000
 XYZ=   -4.9092   -7.9653   -2.8543 Q=    0.4100 A=    0.0000 R=    0.0000 C=    0.0000
 XYZ=   -5.7693   -9.3122   -3.1899 Q=    0.4100 A=    0.0000 R=    0.0000 C=    0.0000
 XYZ=   -5.1277    4.2563    8.8641 Q=   -0.8200 A=    0.0000 R=    0.0000 C=    0.0000
 XYZ=   -5.7088    5.0606    8.9889 Q=    0.4100 A=    0.0000 R=    0.0000 C=    0.0000
 XYZ=   -4.2238    4.5441    8.5475 Q=    0.4100 A=    0.0000 R=    0.0000 C=    0.0000
 XYZ=   -4.3797    9.8444    0.4535 Q=   -0.8200 A=    0.0000 R=    0.0000 C=    0.0000
 XYZ=   -4.8799   10.6191    0.0666 Q=    0.4100 A=    0.0000 R=    0.0000 C=    0.0000
 XYZ=   -5.0094    9.0818    0.6019 Q=    0.4100 A=    0.0000 R=    0.0000 C=    0.0000
 XYZ=    2.4579   -3.6671  -10.5091 Q=   -0.8200 A=    0.0000 R=    0.0000 C=    0.0000
 XYZ=    3.3902   -3.5044  -10.1859 Q=    0.4100 A=    0.0000 R=    0.0000 C=    0.0000
 XYZ=    2.3305   -3.2234  -11.3962 Q=    0.4100 A=    0.0000 R=    0.0000 C=    0.0000
 XYZ=   -6.7235    8.1041    3.3854 Q=   -0.8200 A=    0.0000 R=    0.0000 C=    0.0000
 XYZ=   -7.0811    7.1702    3.3938 Q=    0.4100 A=    0.0000 R=    0.0000 C=    0.0000
 XYZ=   -6.5554    8.4051    4.3241 Q=    0.4100 A=    0.0000 R=    0.0000 C=    0.0000
 XYZ=   -9.3380    3.5808   -4.3083 Q=   -0.8200 A=    0.0000 R=    0.0000 C=    0.0000
 XYZ=   -8.7440    3.3493   -5.0789 Q=    0.4100 A=    0.0000 R=    0.0000 C=    0.0000
 XYZ=   -9.5374    2.7546   -3.7814 Q=    0.4100 A=    0.0000 R=    0.0000 C=    0.0000
 XYZ=   -8.2197   -2.9585    5.2329 Q=   -0.8200 A=    0.0000 R=    0.0000 C=    0.0000
 XYZ=   -8.0813   -2.6136    4.3045 Q=    0.4100 A=    0.0000 R=    0.0000 C=    0.0000
 XYZ=   -8.9139   -3.6782    5.2210 Q=    0.4100 A=    0.0000 R=    0.0000 C=    0.0000
 XYZ=    1.2913   10.6174    0.5910 Q=   -0.8200 A=    0.0000 R=    0.0000 C=    0.0000
 XYZ=    2.1469   11.0894    0.3788 Q=    0.4100 A=    0.0000 R=    0.0000 C=    0.0000
 XYZ=    1.1949    9.8188   -0.0032 Q=    0.4100 A=    0.0000 R=    0.0000 C=    0.0000
 XYZ=   -6.1944    8.3864    1.0686 Q=   -0.8200 A=    0.0000 R=    0.0000 C=    0.0000
 XYZ=   -6.9089    8.9793    0.6970 Q=    0.4100 A=    0.0000 R=    0.0000 C=    0.0000
 XYZ=   -6.3289    8.2796    2.0538 Q=    0.4100 A=    0.0000 R=    0.0000 C=    0.0000
 XYZ=    9.0396    1.8912    5.3919 Q=   -0.8200 A=    0.0000 R=    0.0000 C=    0.0000
 XYZ=    8.4015    1.2510    4.9641 Q=    0.4100 A=    0.0000 R=    0.0000 C=    0.0000
 XYZ=    9.8712    1.4043    5.6592 Q=    0.4100 A=    0.0000 R=    0.0000 C=    0.0000
 XYZ=    0.1307    8.9765    6.7533 Q=   -0.8200 A=    0.0000 R=    0.0000 C=    0.0000
 XYZ=    0.3112    7.9929    6.7517 Q=    0.4100 A=    0.0000 R=    0.0000 C=    0.0000
 XYZ=    0.6184    9.4060    5.9932 Q=    0.4100 A=    0.0000 R=    0.0000 C=    0.0000
 XYZ=   -6.5955   -3.1859   -7.7447 Q=   -0.8200 A=    0.0000 R=    0.0000 C=    0.0000
 XYZ=   -7.5516   -2.9478   -7.5737 Q=    0.4100 A=    0.0000 R=    0.0000 C=    0.0000
 XYZ=   -6.5292   -3.7089   -8.5945 Q=    0.4100 A=    0.0000 R=    0.0000 C=    0.0000
 XYZ=  -10.1050    1.3160   -0.7257 Q=   -0.8200 A=    0.0000 R=    0.0000 C=    0.0000
 XYZ=  -11.0624    1.0316   -0.6733 Q=    0.4100 A=    0.0000 R=    0.0000 C=    0.0000
 XYZ=   -9.8997    1.9364    0.0312 Q=    0.4100 A=    0.0000 R=    0.0000 C=    0.0000
 XYZ=   -2.1035    4.1938   10.4342 Q=   -0.8200 A=    0.0000 R=    0.0000 C=    0.0000
 XYZ=   -2.3086    5.1726   10.4304 Q=    0.4100 A=    0.0000 R=    0.0000 C=    0.0000
 XYZ=   -1.6092    3.9537    9.5987 Q=    0.4100 A=    0.0000 R=    0.0000 C=    0.0000
 XYZ=    8.7926   -5.5847    2.4989 Q=   -0.8200 A=    0.0000 R=    0.0000 C=    0.0000
 XYZ=    8.0518   -5.0998    2.9638 Q=    0.4100 A=    0.0000 R=    0.0000 C=    0.0000
 XYZ=    8.5926   -5.6396    1.5206 Q=    0.4100 A=    0.0000 R=    0.0000 C=    0.0000
 XYZ=    9.0126    3.1019   -3.7011 Q=   -0.8200 A=    0.0000 R=    0.0000 C=    0.0000
 XYZ=    8.3365    3.2483   -2.9790 Q=    0.4100 A=    0.0000 R=    0.0000 C=    0.0000
 XYZ=    9.9086    3.4166   -3.3876 Q=    0.4100 A=    0.0000 R=    0.0000 C=    0.0000
 XYZ=    6.9431   -1.9173    7.3011 Q=   -0.8200 A=    0.0000 R=    0.0000 C=    0.0000
 XYZ=    7.1901   -1.5291    8.1890 Q=    0.4100 A=    0.0000 R=    0.0000 C=    0.0000
 XYZ=    7.6099   -2.6177    7.0465 Q=    0.4100 A=    0.0000 R=    0.0000 C=    0.0000
 XYZ=    6.5177   -8.3302   -0.5649 Q=   -0.8200 A=    0.0000 R=    0.0000 C=    0.0000
 XYZ=    7.1461   -8.8377    0.0247 Q=    0.4100 A=    0.0000 R=    0.0000 C=    0.0000
 XYZ=    7.0382   -7.8458   -1.2680 Q=    0.4100 A=    0.0000 R=    0.0000 C=    0.0000
 XYZ=   -6.1161    2.2639    8.3586 Q=   -0.8200 A=    0.0000 R=    0.0000 C=    0.0000
 XYZ=   -6.1600    1.7001    9.1834 Q=    0.4100 A=    0.0000 R=    0.0000 C=    0.0000
 XYZ=   -5.6745    3.1350    8.5734 Q=    0.4100 A=    0.0000 R=    0.0000 C=    0.0000
 XYZ=    8.0233   -3.3688   -7.7491 Q=   -0.8200 A=    0.0000 R=    0.0000 C=    0.0000
 XYZ=    7.4682   -2.6552   -7.3217 Q=    0.4100 A=    0.0000 R=    0.0000 C=    0.0000
 XYZ=    7.9321   -4.2182   -7.2291 Q=    0.4100 A=    0.0000 R=    0.0000 C=    0.0000
 XYZ=   -1.1040    3.0178  -11.3905 Q=   -0.8200 A=    0.0000 R=    0.0000 C=    0.0000
 XYZ=   -1.5739    2.5245  -10.6584 Q=    0.4100 A=    0.0000 R=    0.0000 C=    0.0000
 XYZ=   -0.6232    2.3655  -11.9766 Q=    0.4100 A=    0.0000 R=    0.0000 C=    0.0000
 XYZ=    5.9244    1.0757    8.4917 Q=   -0.8200 A=    0.0000 R=    0.0000 C=    0.0000
 XYZ=    6.7016    1.5114    8.0376 Q=    0.4100 A=    0.0000 R=    0.0000 C=    0.0000
 XYZ=    5.4660    1.7418    9.0802 Q=    0.4100 A=    0.0000 R=    0.0000 C=    0.0000
 XYZ=    4.0660   -1.1953  -11.2892 Q=   -0.8200 A=    0.0000 R=    0.0000 C=    0.0000
 XYZ=    3.6409   -0.4291  -10.8073 Q=    0.4100 A=    0.0000 R=    0.0000 C=    0.0000
 XYZ=    4.4295   -1.8472  -10.6236 Q=    0.4100 A=    0.0000 R=    0.0000 C=    0.0000
 XYZ=   10.5834   -2.0671   -2.5937 Q=   -0.8200 A=    0.0000 R=    0.0000 C=    0.0000
 XYZ=    9.9060   -2.0811   -1.8582 Q=    0.4100 A=    0.0000 R=    0.0000 C=    0.0000
 XYZ=   11.5003   -2.1537   -2.2041 Q=    0.4100 A=    0.0000 R=    0.0000 C=    0.0000
 XYZ=   -4.2749   10.0424   -4.3220 Q=   -0.8200 A=    0.0000 R=    0.0000 C=    0.0000
 XYZ=   -3.9535    9.2262   -3.8419 Q=    0.4100 A=    0.0000 R=    0.0000 C=    0.0000
 XYZ=   -3.7278   10.1806   -5.1476 Q=    0.4100 A=    0.0000 R=    0.0000 C=    0.0000
 XYZ=    7.4205    6.7164    0.8668 Q=   -0.8200 A=    0.0000 R=    0.0000 C=    0.0000
 XYZ=    7.7449    7.5416    1.3294 Q=    0.4100 A=    0.0000 R=    0.0000 C=    0.0000
 XYZ=    7.1893    6.0216    1.5479 Q=    0.4100 A=    0.0000 R=    0.0000 C=    0.0000
 XYZ=   -3.3395   10.0591    2.4920 Q=   -0.8200 A=    0.0000 R=    0.0000 C=    0.0000
 XYZ=   -4.1012   10.3862    3.0513 Q=    0.4100 A=    0.0000 R=    0.0000 C=    0.0000
 XYZ=   -3.6198   10.0279    1.5326 Q=    0.4100 A=    0.0000 R=    0.0000 C=    0.0000
 XYZ=   -6.1131    6.2258    6.7585 Q=   -0.8200 A=    0.0000 R=    0.0000 C=    0.0000
 XYZ=   -6.1075    7.0882    6.2524 Q=    0.4100 A=    0.0000 R=    0.0000 C=    0.0000
 XYZ=   -6.2329    6.4124    7.7336 Q=    0.4100 A=    0.0000 R=    0.0000 C=    0.0000
 XYZ=    6.1509    4.2233    7.0283 Q=   -0.8200 A=    0.0000 R=    0.0000 C=    0.0000
 XYZ=    6.7355    5.0261    6.9114 Q=    0.4100 A=    0.0000 R=    0.0000 C=    0.0000
 XYZ=    6.7144    3.4328    7.2683 Q=    0.4100 A=    0.0000 R=    0.0000 C=    0.0000
 XYZ=    1.0832   -8.5722   -7.2406 Q=   -0.8200 A=    0.0000 R=    0.0000 C=    0.0000
 XYZ=    0.3976   -9.1947   -6.8631 Q=    0.4100 A=    0.0000 R=    0.0000 C=    0.0000
 XYZ=    1.9922   -8.8487   -6.9287 Q=    0.4100 A=    0.0000 R=    0.0000 C=    0.0000
 XYZ=   -5.5051    0.3591  -10.3348 Q=   -0.8200 A=    0.0000 R=    0.0000 C=    0.0000
 XYZ=   -5.7420   -0.2154   -9.5513 Q=    0.4100 A=    0.0000 R=    0.0000 C=    0.0000
 XYZ=   -6.3224    0.5229  -10.8872 Q=    0.4100 A=    0.0000 R=    0.0000 C=    0.0000
 XYZ=   -2.7139   -5.6749  -10.7038 Q=   -0.8200 A=    0.0000 R=    0.0000 C=    0.0000
 XYZ=   -2.8115   -5.4506  -11.6734 Q=    0.4100 A=    0.0000 R=    0.0000 C=    0.0000
 XYZ=   -1.8931   -5.2340  -10.3407 Q=    0.4100 A=    0.0000 R=    0.0000 C=    0.0000
 XYZ=   -9.9773    2.8554    3.5201 Q=   -0.8200 A=    0.0000 R=    0.0000 C=    0.0000
 XYZ=  -10.5969    3.0432    2.7579 Q=    0.4100 A=    0.0000 R=    0.0000 C=    0.0000
 XYZ=   -9.7791    1.8758    3.5549 Q=    0.4100 A=    0.0000 R=    0.0000 C=    0.0000
 XYZ=   -7.3859   -6.2010   -1.9108 Q=   -0.8200 A=    0.0000 R=    0.0000 C=    0.0000
 XYZ=   -8.1395   -5.6350   -1.5768 Q=    0.4100 A=    0.0000 R=    0.0000 C=    0.0000
 XYZ=   -7.7544   -7.0007   -2.3849 Q=    0.4100 A=    0.0000 R=    0.0000 C=    0.0000
 XYZ=   -2.6952    6.5085    9.6892 Q=   -0.8200 A=    0.0000 R=    0.0000 C=    0.0000
 XYZ=   -2.7681    6.1207    8.7704 Q=    0.4100 A=    0.0000 R=    0.0000 C=    0.0000
 XYZ=   -3.6061    6.5740   10.0966 Q=    0.4100 A=    0.0000 R=    0.0000 C=    0.0000
 XYZ=   -4.2170   -1.6869  -10.6351 Q=   -0.8200 A=    0.0000 R=    0.0000 C=    0.0000
 XYZ=   -4.6412   -0.7815  -10.6157 Q=    0.4100 A=    0.0000 R=    0.0000 C=    0.0000
 XYZ=   -4.8629   -2.3495  -11.0142 Q=    0.4100 A=    0.0000 R=    0.0000 C=    0.0000
 XYZ=   -4.9893   -7.8649    5.2480 Q=   -0.8200 A=    0.0000 R=    0.0000 C=    0.0000
 XYZ=   -4.3598   -7.3175    4.6966 Q=    0.4100 A=    0.0000 R=    0.0000 C=    0.0000
 XYZ=   -5.7368   -7.2860    5.5739 Q=    0.4100 A=    0.0000 R=    0.0000 C=    0.0000
 XYZ=   -0.8152  -10.1791   -6.1379 Q=   -0.8200 A=    0.0000 R=    0.0000 C=    0.0000
 XYZ=   -1.2076   -9.2628   -6.2189 Q=    0.4100 A=    0.0000 R=    0.0000 C=    0.0000
 XYZ=   -1.0857  -10.7285   -6.9284 Q=    0.4100 A=    0.0000 R=    0.0000 C=    0.0000
 XYZ=    3.3867   -8.8884   -6.7503 Q=   -0.8200 A=    0.0000 R=    0.0000 C=    0.0000
 XYZ=    3.9665   -8.0976   -6.9464 Q=    0.4100 A=    0.0000 R=    0.0000 C=    0.0000
 XYZ=    3.9616   -9.6866   -6.5700 Q=    0.4100 A=    0.0000 R=    0.0000 C=    0.0000
 XYZ=   -7.7814    0.3159    8.2601 Q=   -0.8200 A=    0.0000 R=    0.0000 C=    0.0000
 XYZ=   -7.7018   -0.3915    7.5578 Q=    0.4100 A=    0.0000 R=    0.0000 C=    0.0000
 XYZ=   -7.1082    1.0348    8.0869 Q=    0.4100 A=    0.0000 R=    0.0000 C=    0.0000
 XYZ=   10.3549   -2.4758    0.9660 Q=   -0.8200 A=    0.0000 R=    0.0000 C=    0.0000
 XYZ=   10.5885   -3.1870    1.6291 Q=    0.4100 A=    0.0000 R=    0.0000 C=    0.0000
 XYZ=    9.9772   -1.6839    1.4458 Q=    0.4100 A=    0.0000 R=    0.0000 C=    0.0000
 XYZ=    7.8426   -7.8343    2.7310 Q=   -0.8200 A=    0.0000 R=    0.0000 C=    0.0000
 XYZ=    8.5257   -7.1073    2.6608 Q=    0.4100 A=    0.0000 R=    0.0000 C=    0.0000
 XYZ=    6.9381   -7.4299    2.8661 Q=    0.4100 A=    0.0000 R=    0.0000 C=    0.0000
 XYZ=   -2.7129   -9.6458    1.6024 Q=   -0.8200 A=    0.0000 R=    0.0000 C=    0.0000
 XYZ=   -3.4507   -9.6622    0.9275 Q=    0.4100 A=    0.0000 R=    0.0000 C=    0.0000
 XYZ=   -1.8752  -10.0028    1.1892 Q=    0.4100 A=    0.0000 R=    0.0000 C=    0.0000
 XYZ=    9.0389    1.1970   -5.0431 Q=   -0.8200 A=    0.0000 R=    0.0000 C=    0.0000
 XYZ=    9.0704    1.9414   -4.3760 Q=    0.4100 A=    0.0000 R=    0.0000 C=    0.0000
 XYZ=    9.7770    0.5492   -4.8547 Q=    0.4100 A=    0.0000 R=    0.0000 C=    0.0000
 XYZ=    7.6302    2.2017    7.4717 Q=   -0.8200 A=    0.0000 R=    0.0000 C=    0.0000
 XYZ=    8.0667    2.0111    6.5924 Q=    0.4100 A=    0.0000 R=    0.0000 C=    0.0000
 XYZ=    8.3314    2.4103    8.1535 Q=    0.4100 A=    0.0000 R=    0.0000 C=    0.0000
 XYZ=   -4.4658   -8.0290   -7.8766 Q=   -0.8200 A=    0.0000 R=    0.0000 C=    0.0000
 XYZ=   -3.8933   -8.8198   -8.0929 Q=    0.4100 A=    0.0000 R=    0.0000 C=    0.0000
 XYZ=   -4.4608   -7.8742   -6.8886 Q=    0.4100 A=    0.0000 R=    0.0000 C=    0.0000
 XYZ=    0.3860   -8.4178    5.9636 Q=   -0.8200 A=    0.0000 R=    0.0000 C=    0.0000
 XYZ=   -0.4309   -8.4265    6.5405 Q=    0.4100 A=    0.0000 R=    0.0000 C=    0.0000
 XYZ=    0.2413   -9.0114    5.1719 Q=    0.4100 A=    0.0000 R=    0.0000 C=    0.0000
 XYZ=    7.5700    4.5582   -4.8390 Q=   -0.8200 A=    0.0000 R=    0.0000 C=    0.0000
 XYZ=    8.2302    4.0316   -4.3034 Q=    0.4100 A=    0.0000 R=    0.0000 C=    0.0000
 XYZ=    7.8543    4.5725   -5.7976 Q=    0.4100 A=    0.0000 R=    0.0000 C=    0.0000
 XYZ=  -11.3422   -1.6245   -1.5522 Q=   -0.8200 A=    0.0000 R=    0.0000 C=    0.0000
 XYZ=  -11.8282   -0.7517   -1.5061 Q=    0.4100 A=    0.0000 R=    0.0000 C=    0.0000
 XYZ=  -10.3706   -1.4750   -1.3684 Q=    0.4100 A=    0.0000 R=    0.0000 C=    0.0000
 XYZ=   -4.6432   -5.8817   -9.0123 Q=   -0.8200 A=    0.0000 R=    0.0000 C=    0.0000
 XYZ=   -3.9119   -5.6881   -9.6663 Q=    0.4100 A=    0.0000 R=    0.0000 C=    0.0000
 XYZ=   -4.5017   -6.7872   -8.6124 Q=    0.4100 A=    0.0000 R=    0.0000 C=    0.0000
 XYZ=   -1.4918   -7.7659  -10.1216 Q=   -0.8200 A=    0.0000 R=    0.0000 C=    0.0000
 XYZ=   -2.0069   -7.0438  -10.5835 Q=    0.4100 A=    0.0000 R=    0.0000 C=    0.0000
 XYZ=   -1.0042   -7.3789   -9.3389 Q=    0.4100 A=    0.0000 R=    0.0000 C=    0.0000
 XYZ=    7.3076   -5.4503   -6.8332 Q=   -0.8200 A=    0.0000 R=    0.0000 C=    0.0000
 XYZ=    8.0562   -6.0603   -6.5732 Q=    0.4100 A=    0.0000 R=    0.0000 C=    0.0000
 XYZ=    6.9184   -5.7524   -7.7035 Q=    0.4100 A=    0.0000 R=    0.0000 C=    0.0000
 XYZ=   -4.1710    9.2962    5.3872 Q=   -0.8200 A=    0.0000 R=    0.0000 C=    0.0000
 XYZ=   -3.6048    9.8431    6.0039 Q=    0.4100 A=    0.0000 R=    0.0000 C=    0.0000
 XYZ=   -4.4974    9.8709    4.6367 Q=    0.4100 A=    0.0000 R=    0.0000 C=    0.0000
 XYZ=   -6.3303    8.3931    5.7633 Q=   -0.8200 A=    0.0000 R=    0.0000 C=    0.0000
 XYZ=   -6.6381    9.0074    6.4898 Q=    0.4100 A=    0.0000 R=    0.0000 C=    0.0000
 XYZ=   -5.4059    8.6488    5.4801 Q=    0.4100 A=    0.0000 R=    0.0000 C=    0.0000
 XYZ=   -7.6759   -6.8637    2.2365 Q=   -0.8200 A=    0.0000 R=    0.0000 C=    0.0000
 XYZ=   -8.3550   -7.2711    1.6258 Q=    0.4100 A=    0.0000 R=    0.0000 C=    0.0000
 XYZ=   -7.1647   -6.1594    1.7439 Q=    0.4100 A=    0.0000 R=    0.0000 C=    0.0000
 XYZ=    0.4824    1.3159  -12.4332 Q=   -0.8200 A=    0.0000 R=    0.0000 C=    0.0000
 XYZ=    1.0982    1.7055  -11.7483 Q=    0.4100 A=    0.0000 R=    0.0000 C=    0.0000
 XYZ=    0.2353    0.3841  -12.1675 Q=    0.4100 A=    0.0000 R=    0.0000 C=    0.0000
 XYZ=   -6.6363   -6.4044    5.9864 Q=   -0.8200 A=    0.0000 R=    0.0000 C=    0.0000
 XYZ=   -7.4908   -6.6638    5.5363 Q=    0.4100 A=    0.0000 R=    0.0000 C=    0.0000
 XYZ=   -6.3501   -5.5022    5.6636 Q=    0.4100 A=    0.0000 R=    0.0000 C=    0.0000
 XYZ=   -9.4190    1.4714   -7.7824 Q=   -0.8200 A=    0.0000 R=    0.0000 C=    0.0000
 XYZ=   -9.1744    1.7438   -8.7130 Q=    0.4100 A=    0.0000 R=    0.0000 C=    0.0000
 XYZ=   -8.8476    1.9679   -7.1288 Q=    0.4100 A=    0.0000 R=    0.0000 C=    0.0000
 XYZ=   -2.3217   10.2815   -6.1364 Q=   -0.8200 A=    0.0000 R=    0.0000 C=    0.0000
 XYZ=   -1.9187    9.6787   -5.4478 Q=    0.4100 A=    0.0000 R=    0.0000 C=    0.0000
 XYZ=   -1.8047   11.1367   -6.1742 Q=    0.4100 A=    0.0000 R=    0.0000 C=    0.0000
 XYZ=    5.2699    4.9027    9.1352 Q=   -0.8200 A=    0.0000 R=    0.0000 C=    0.0000
 XYZ=    6.0649    5.3614    9.5322 Q=    0.4100 A=    0.0000 R=    0.0000 C=    0.0000
 XYZ=    5.4425    4.7135    8.1686 Q=    0.4100 A=    0.0000 R=    0.0000 C=    0.0000
 XYZ=   -9.8854    4.2411    5.4630 Q=   -0.8200 A=    0.0000 R=    0.0000 C=    0.0000
 XYZ=   -9.9628    3.7331    4.6052 Q=    0.4100 A=    0.0000 R=    0.0000 C=    0.0000
 XYZ=   -8.9197    4.3601    5.6938 Q=    0.4100 A=    0.0000 R=    0.0000 C=    0.0000
 XYZ=   -5.0044   -8.8912    0.4481 Q=   -0.8200 A=    0.0000 R=    0.0000 C=    0.0000
 XYZ=   -5.4969   -9.0912    1.2951 Q=    0.4100 A=    0.0000 R=    0.0000 C=    0.0000
 XYZ=   -5.1887   -9.6100   -0.2223 Q=    0.4100 A=    0.0000 R=    0.0000 C=    0.0000
 XYZ=   10.2275    2.8262    1.1230 Q=   -0.8200 A=    0.0000 R=    0.0000 C=    0.0000
 XYZ=    9.7207    2.9478    1.9765 Q=    0.4100 A=    0.0000 R=    0.0000 C=    0.0000
 XYZ=   10.9927    3.4694    1.0953 Q=    0.4100 A=    0.0000 R=    0.0000 C=    0.0000
 XYZ=   -1.7065    6.3184   -9.7642 Q=   -0.8200 A=    0.0000 R=    0.0000 C=    0.0000
 XYZ=   -1.3085    7.2349   -9.8035 Q=    0.4100 A=    0.0000 R=    0.0000 C=    0.0000
 XYZ=   -0.9889    5.6369   -9.9080 Q=    0.4100 A=    0.0000 R=    0.0000 C=    0.0000
 XYZ=    7.4680   -0.5824    9.2663 Q=   -0.8200 A=    0.0000 R=    0.0000 C=    0.0000
 XYZ=    6.8895    0.0718    8.7790 Q=    0.4100 A=    0.0000 R=    0.0000 C=    0.0000
 XYZ=    8.2738   -0.1116    9.6256 Q=    0.4100 A=    0.0000 R=    0.0000 C=    0.0000
 XYZ=    9.7162   -4.3779   -5.8146 Q=   -0.8200 A=    0.0000 R=    0.0000 C=    0.0000
 XYZ=    9.4182   -3.7572   -5.0894 Q=    0.4100 A=    0.0000 R=    0.0000 C=    0.0000
 XYZ=   10.2655   -3.8731   -6.4805 Q=    0.4100 A=    0.0000 R=    0.0000 C=    0.0000
 XYZ=   -0.8889  -10.8816    0.2665 Q=   -0.8200 A=    0.0000 R=    0.0000 C=    0.0000
 XYZ=   -0.3133  -11.5649    0.7157 Q=    0.4100 A=    0.0000 R=    0.0000 C=    0.0000
 XYZ=   -1.6280  -11.3405   -0.2265 Q=    0.4100 A=    0.0000 R=    0.0000 C=    0.0000
 XYZ=    1.6591    4.2813   10.4249 Q=   -0.8200 A=    0.0000 R=    0.0000 C=    0.0000
 XYZ=    0.8355    4.2132   10.9880 Q=    0.4100 A=    0.0000 R=    0.0000 C=    0.0000
 XYZ=    2.1261    3.3971   10.4090 Q=    0.4100 A=    0.0000 R=    0.0000 C=    0.0000
 XYZ=   -0.4065   -3.6164   10.6263 Q=   -0.8200 A=    0.0000 R=    0.0000 C=    0.0000
 XYZ=    0.2647   -4.2803   10.2965 Q=    0.4100 A=    0.0000 R=    0.0000 C=    0.0000
 XYZ=   -1.2112   -4.0994   10.9716 Q=    0.4100 A=    0.0000 R=    0.0000 C=    0.0000
 XYZ=   10.4954   -0.1611   -3.8136 Q=   -0.8200 A=    0.0000 R=    0.0000 C=    0.0000
 XYZ=   10.9025    0.5944   -3.3002 Q=    0.4100 A=    0.0000 R=    0.0000 C=    0.0000
 XYZ=   10.4708   -0.9794   -3.2391 Q=    0.4100 A=    0.0000 R=    0.0000 C=    0.0000
 XYZ=   11.1266    1.5758   -2.1902 Q=   -0.8200 A=    0.0000 R=    0.0000 C=    0.0000
 XYZ=   10.2655    1.7971   -1.7324 Q=    0.4100 A=    0.0000 R=    0.0000 C=    0.0000
 XYZ=   11.6632    0.9613   -1.6118 Q=    0.4100 A=    0.0000 R=    0.0000 C=    0.0000
 XYZ=    8.2528    6.5903    4.6167 Q=   -0.8200 A=    0.0000 R=    0.0000 C=    0.0000
 XYZ=    8.9793    5.9320    4.8143 Q=    0.4100 A=    0.0000 R=    0.0000 C=    0.0000
 XYZ=    7.6353    6.2086    3.9290 Q=    0.4100 A=    0.0000 R=    0.0000 C=    0.0000
 XYZ=   -1.1488   -6.6868    9.3998 Q=   -0.8200 A=    0.0000 R=    0.0000 C=    0.0000
 XYZ=   -0.3755   -6.0695    9.2548 Q=    0.4100 A=    0.0000 R=    0.0000 C=    0.0000
 XYZ=   -1.9961   -6.1568    9.4360 Q=    0.4100 A=    0.0000 R=    0.0000 C=    0.0000
 XYZ=    7.9015    6.3096   -1.4080 Q=   -0.8200 A=    0.0000 R=    0.0000 C=    0.0000
 XYZ=    7.3899    6.9238   -2.0088 Q=    0.4100 A=    0.0000 R=    0.0000 C=    0.0000
 XYZ=    7.6720    6.5080   -0.4551 Q=    0.4100 A=    0.0000 R=    0.0000 C=    0.0000
 XYZ=    6.7976   -4.1765   -9.7459 Q=   -0.8200 A=    0.0000 R=    0.0000 C=    0.0000
 XYZ=    7.4867   -4.2176  -10.4695 Q=    0.4100 A=    0.0000 R=    0.0000 C=    0.0000
 XYZ=    7.2203   -3.8473   -8.9014 Q=    0.4100 A=    0.0000 R=    0.0000 C=    0.0000
 XYZ=    5.0508    2.6378    9.9064 Q=   -0.8200 A=    0.0000 R=    0.0000 C=    0.0000
 XYZ=    5.6535    2.5850   10.7027 Q=    0.4100 A=    0.0000 R=    0.0000 C=    0.0000
 XYZ=    5.0936    3.5577    9.5165 Q=    0.4100 A=    0.0000 R=    0.0000 C=    0.0000
 XYZ=   -0.5268  -11.6178   -4.1721 Q=   -0.8200 A=    0.0000 R=    0.0000 C=    0.0000
 XYZ=   -0.3836  -10.9259   -3.4643 Q=    0.4100 A=    0.0000 R=    0.0000 C=    0.0000
 XYZ=   -0.7248  -11.1677   -5.0428 Q=    0.4100 A=    0.0000 R=    0.0000 C=    0.0000
 XYZ=   -1.6044   -8.1222    7.1215 Q=   -0.8200 A=    0.0000 R=    0.0000 C=    0.0000
 XYZ=   -1.3172   -7.6140    7.9334 Q=    0.4100 A=    0.0000 R=    0.0000 C=    0.0000
 XYZ=   -2.5969   -8.2439    7.1382 Q=    0.4100 A=    0.0000 R=    0.0000 C=    0.0000
 XYZ=    2.5101   -2.5673  -12.6026 Q=   -0.8200 A=    0.0000 R=    0.0000 C=    0.0000
 XYZ=    2.9628   -1.8018  -12.1453 Q=    0.4100 A=    0.0000 R=    0.0000 C=    0.0000
 XYZ=    2.9595   -2.7456  -13.4780 Q=    0.4100 A=    0.0000 R=    0.0000 C=    0.0000
 XYZ=   11.3279    0.7764    1.3122 Q=   -0.8200 A=    0.0000 R=    0.0000 C=    0.0000
 XYZ=   10.6680    0.0903    1.6183 Q=    0.4100 A=    0.0000 R=    0.0000 C=    0.0000
 XYZ=   10.8792    1.6683    1.2553 Q=    0.4100 A=    0.0000 R=    0.0000 C=    0.0000
 XYZ=   -2.1169   11.9999    1.5988 Q=   -0.8200 A=    0.0000 R=    0.0000 C=    0.0000
 XYZ=   -2.7770   11.3006    1.8734 Q=    0.4100 A=    0.0000 R=    0.0000 C=    0.0000
 XYZ=   -2.6051   12.8190    1.2976 Q=    0.4100 A=    0.0000 R=    0.0000 C=    0.0000
 XYZ=   -4.7035  -10.5069   -1.2721 Q=   -0.8200 A=    0.0000 R=    0.0000 C=    0.0000
 XYZ=   -5.4871  -11.0900   -1.4866 Q=    0.4100 A=    0.0000 R=    0.0000 C=    0.0000
 XYZ=   -4.4922   -9.9292   -2.0606 Q=    0.4100 A=    0.0000 R=    0.0000 C=    0.0000
 XYZ=   -6.5030   -4.7266   -9.8150 Q=   -0.8200 A=    0.0000 R=    0.0000 C=    0.0000
 XYZ=   -5.7166   -5.3073   -9.6046 Q=    0.4100 A=    0.0000 R=    0.0000 C=    0.0000
 XYZ=   -7.1783   -5.2541  -10.3305 Q=    0.4100 A=    0.0000 R=    0.0000 C=    0.0000
 XYZ=   -4.0241    3.0585   11.2691 Q=   -0.8200 A=    0.0000 R=    0.0000 C=    0.0000
 XYZ=   -3.1546    3.4385   10.9536 Q=    0.4100 A=    0.0000 R=    0.0000 C=    0.0000
 XYZ=   -4.6659    3.0143   10.5035 Q=    0.4100 A=    0.0000 R=    0.0000 C=    0.0000
 XYZ=   10.7797   -4.3911    2.4181 Q=   -0.8200 A=    0.0000 R=    0.0000 C=    0.0000
 XYZ=    9.9258   -4.8444    2.6739 Q=    0.4100 A=    0.0000 R=    0.0000 C=    0.0000
 XYZ=   11.3785   -5.0449    1.9554 Q=    0.4100 A=    0.0000 R=    0.0000 C=    0.0000
 XYZ=    0.8288   -7.6040  -11.2899 Q=   -0.8200 A=    0.0000 R=    0.0000 C=    0.0000
 XYZ=   -0.0613   -7.8134  -10.8851 Q=    0.4100 A=    0.0000 R=    0.0000 C=    0.0000
 XYZ=    1.2829   -6.8964  -10.7485 Q=    0.4100 A=    0.0000 R=    0.0000 C=    0.0000
 XYZ=  -11.7448    0.7697    4.2243 Q=   -0.8200 A=    0.0000 R=    0.0000 C=    0.0000
 XYZ=  -11.7880    1.6625    4.6729 Q=    0.4100 A=    0.0000 R=    0.0000 C=    0.0000
 XYZ=  -10.9374    0.7312    3.6356 Q=    0.4100 A=    0.0000 R=    0.0000 C=    0.0000
 XYZ=    0.2027   -2.2184  -13.3495 Q=   -0.8200 A=    0.0000 R=    0.0000 C=    0.0000
 XYZ=   -0.1105   -1.4078  -12.8546 Q=    0.4100 A=    0.0000 R=    0.0000 C=    0.0000
 XYZ=    1.0938   -2.5017  -12.9949 Q=    0.4100 A=    0.0000 R=    0.0000 C=    0.0000
 XYZ=   12.0681   -2.1309   -0.5582 Q=   -0.8200 A=    0.0000 R=    0.0000 C=    0.0000
 XYZ=   12.8892   -1.9916   -0.0046 Q=    0.4100 A=    0.0000 R=    0.0000 C=    0.0000
 XYZ=   11.2732   -2.2224    0.0417 Q=    0.4100 A=    0.0000 R=    0.0000 C=    0.0000
 XYZ=   -2.1104  -10.9206    3.5377 Q=   -0.8200 A=    0.0000 R=    0.0000 C=    0.0000
 XYZ=   -1.4131  -10.3231    3.9336 Q=    0.4100 A=    0.0000 R=    0.0000 C=    0.0000
 XYZ=   -2.5369  -10.4634    2.7572 Q=    0.4100 A=    0.0000 R=    0.0000 C=    0.0000
 XYZ=   -5.0077    3.8271  -11.5027 Q=   -0.8200 A=    0.0000 R=    0.0000 C=    0.0000
 XYZ=   -4.3893    4.5986  -11.3531 Q=    0.4100 A=    0.0000 R=    0.0000 C=    0.0000
 XYZ=   -4.7477    3.0704  -10.9028 Q=    0.4100 A=    0.0000 R=    0.0000 C=    0.0000
 XYZ=   -6.8697   -7.5987   -8.0173 Q=   -0.8200 A=    0.0000 R=    0.0000 C=    0.0000
 XYZ=   -5.9244   -7.9234   -8.0505 Q=    0.4100 A=    0.0000 R=    0.0000 C=    0.0000
 XYZ=   -6.8925   -6.6791   -7.6250 Q=    0.4100 A=    0.0000 R=    0.0000 C=    0.0000
 XYZ=   -1.0316   10.0263    8.3127 Q=   -0.8200 A=    0.0000 R=    0.0000 C=    0.0000
 XYZ=   -0.5197    9.5592    7.5917 Q=    0.4100 A=    0.0000 R=    0.0000 C=    0.0000
 XYZ=   -1.4101    9.3497    8.9444 Q=    0.4100 A=    0.0000 R=    0.0000 C=    0.0000
 XYZ=   -0.3722   12.2093    3.4166 Q=   -0.8200 A=    0.0000 R=    0.0000 C=    0.0000
 XYZ=   -1.0592   12.1782    2.6906 Q=    0.4100 A=    0.0000 R=    0.0000 C=    0.0000
 XYZ=    0.3380   11.5296    3.2327 Q=    0.4100 A=    0.0000 R=    0.0000 C=    0.0000
 XYZ=  -11.4664    4.1165   -5.2435 Q=   -0.8200 A=    0.0000 R=    0.0000 C=    0.0000
 XYZ=  -11.5710    3.4988   -6.0230 Q=    0.4100 A=    0.0000 R=    0.0000 C=    0.0000
 XYZ=  -10.5669    3.9801   -4.8285 Q=    0.4100 A=    0.0000 R=    0.0000 C=    0.0000
 XYZ=   -3.2059   -5.5546    9.5738 Q=   -0.8200 A=    0.0000 R=    0.0000 C=    0.0000
 XYZ=   -3.7749   -6.3457    9.7983 Q=    0.4100 A=    0.0000 R=    0.0000 C=    0.0000
 XYZ=   -2.8868   -5.1234   10.4178 Q=    0.4100 A=    0.0000 R=    0.0000 C=    0.0000
 XYZ=    6.3652   -6.3541   -8.8925 Q=   -0.8200 A=    0.0000 R=    0.0000 C=    0.0000
 XYZ=    6.7834   -7.1004   -9.4105 Q=    0.4100 A=    0.0000 R=    0.0000 C=    0.0000
 XYZ=    6.5915   -5.4810   -9.3244 Q=    0.4100 A=    0.0000 R=    0.0000 C=    0.0000
[...]
    38  H    0.000000  -0.000003   0.000000   0.000000   0.000000   0.000000
    39  O    0.002776   0.007544   0.000000   0.000000   0.000000   0.000000
    40  H   -0.000412   0.000628   0.000000   0.000000   0.000000   0.000000
    41  H    0.000062   0.000987   0.000000   0.000000   0.000000   0.000000
    42  O    0.003360   0.003810   0.000000   0.000000   0.000000   0.000000
    43  H   -0.003330  -0.002514   0.000000   0.000000   0.000000   0.000000
    44  H   -0.000020  -0.000045   0.000000   0.000000   0.000000   0.000000
    45  O    0.003868   0.002871   0.000000   0.000000   0.000000   0.000347
    46  H    0.000385  -0.000181   0.000000   0.000000   0.000000   0.000191
    47  H    0.000027   0.000013   0.000000   0.000000   0.000000  -0.000012
    48  O    0.000000   0.000000   0.000000   0.000000   0.000000   0.000000
    49  H    0.000000   0.000000   0.000000   0.000000   0.000000   0.000000
    50  H    0.000000   0.000000   0.000000   0.000000   0.000000   0.000000
              31         32         33         34         35         36
     1  C   -0.001335   0.002804   0.000110   0.000010   0.000105   0.004556
     2  H   -0.000018   0.000009   0.000000   0.000000   0.000000  -0.000002
     3  H   -0.000001  -0.000003   0.000000   0.000000   0.000000  -0.000016
     4  C    0.000295  -0.000777  -0.013048   0.000171   0.001912   0.017001
     5  H    0.000000  -0.000003   0.000006   0.000000   0.000000   0.000819
     6  C    0.000500  -0.000322   0.004014   0.000188  -0.002243  -0.014314
     7  H    0.000000  -0.000001   0.000204   0.000002  -0.000019   0.000023
     8  O   -0.000026   0.000120  -0.003261   0.000090   0.000223  -0.000020
     9  O    0.000000   0.000001  -0.053028  -0.000883   0.006536  -0.000001
    10  H    0.000000   0.000000  -0.003007   0.000071   0.002964   0.000000
    11  H    0.000000   0.000000  -0.001344  -0.000050   0.001783   0.000000
    12  O    0.000815   0.000326  -0.000003   0.000000  -0.000007   0.000000
    13  H    0.000970   0.000890   0.000000   0.000000   0.000000   0.000000
    14  H   -0.000004  -0.000172   0.000005   0.000000  -0.000003   0.000000
    15  O    0.003330   0.040298   0.000000   0.000000   0.000000  -0.002183
    16  H   -0.000317  -0.002739   0.000000   0.000000   0.000000  -0.000023
    17  H    0.000093   0.000339   0.000000   0.000000   0.000000  -0.000153
    18  O    0.000115   0.000187   0.000001   0.000000   0.000000  -0.090763
    19  H    0.000000   0.000002   0.000000   0.000000   0.000000   0.033430
    20  H    0.000000  -0.000132   0.000000   0.000000   0.000000   0.003941
    21  O    0.000004  -0.000214   0.000006   0.000000   0.000000   0.002794
    22  H    0.000000   0.000001   0.000000   0.000000   0.000000   0.000799
    23  H    0.000000   0.000003   0.000000   0.000000   0.000000  -0.000161
    24  O    0.000000  -0.000006   0.000000   0.000000   0.000000   0.001446
    25  H    0.000000   0.000002   0.000000   0.000000   0.000000  -0.000203
    26  H    0.000000   0.000000   0.000000   0.000000   0.000000  -0.000558
    27  O    0.000000   0.000000  -0.000323  -0.000311  -0.000241   0.000000
    28  H    0.000000   0.000000  -0.005286  -0.000023  -0.001851   0.000000
    29  H    0.000000   0.000000   0.001261  -0.000174  -0.000170   0.000000
    30  O    0.204205   0.145650   0.000000   0.000000   0.000000  -0.000011
    31  H    0.184442  -0.003833   0.000000   0.000000   0.000000   0.000000
    32  H   -0.003833   0.168371   0.000000   0.000000   0.000000  -0.000002
    33  O    0.000000   0.000000   8.963863   0.213015   0.158433  -0.000001
    34  H    0.000000   0.000000   0.213015   0.203649  -0.004589   0.000000
    35  H    0.000000   0.000000   0.158433  -0.004589   0.180613   0.000000
    36  O    0.000000  -0.000002  -0.000001   0.000000   0.000000   8.924454
    37  H    0.000000   0.000000   0.000000   0.000000   0.000000   0.190106
    38  H    0.000000   0.000000   0.000000   0.000000   0.000000   0.207683
    39  O    0.000000   0.000001   0.000000   0.000000   0.000000  -0.088113
    40  H    0.000000   0.000000   0.000000   0.000000   0.000000   0.068585
    41  H    0.000000   0.000000   0.000000   0.000000   0.000000   0.001969
    42  O    0.000000   0.000000   0.000000   0.000000   0.000000   0.000063
    43  H    0.000000   0.000000   0.000000   0.000000   0.000000  -0.000038
    44  H    0.000000   0.000000   0.000000   0.000000   0.000000  -0.000002
    45  O   -0.000005   0.000138   0.000000   0.000000   0.000000  -0.001746
    46  H   -0.000002   0.000064   0.000000   0.000000   0.000000  -0.000404
    47  H    0.000000   0.000002   0.000000   0.000000   0.000000   0.000051
    48  O    0.000000   0.000000   0.000000   0.000000   0.000000   0.000000
    49  H    0.000000   0.000000   0.000000   0.000000   0.000000   0.000000
    50  H    0.000000   0.000000   0.000000   0.000000   0.000000   0.000000
              37         38         39         40         41         42
     1  C   -0.000235  -0.000094  -0.005584  -0.000370   0.000161   0.000654
     2  H    0.000000   0.000000   0.000000   0.000000   0.000000   0.000000
     3  H    0.000000   0.000000  -0.000027   0.000001   0.000000  -0.000047
     4  C   -0.000163   0.000017   0.004229  -0.000173  -0.000306   0.000057
     5  H    0.000008   0.000008  -0.000053   0.000025  -0.000002  -0.000024
     6  C    0.000355   0.000030   0.002328   0.000299  -0.000016  -0.001461
     7  H    0.000000  -0.000001   0.000001   0.000000   0.000000   0.000000
     8  O    0.000000   0.000000  -0.000008   0.000000   0.000000   0.000001
     9  O    0.000000   0.000000   0.000000   0.000000   0.000000   0.000000
    10  H    0.000000   0.000000   0.000000   0.000000   0.000000   0.000000
    11  H    0.000000   0.000000   0.000000   0.000000   0.000000   0.000000
    12  O    0.000000   0.000000   0.000000   0.000000   0.000000   0.000000
    13  H    0.000000   0.000000   0.000000   0.000000   0.000000   0.000000
    14  H    0.000000   0.000000   0.000000   0.000000   0.000000   0.000000
    15  O    0.000005   0.000035  -0.000517   0.000084   0.000006  -0.000042
    16  H    0.000000   0.000000  -0.000009   0.000000   0.000000   0.000000
    17  H    0.000011  -0.000004  -0.000057  -0.000001   0.000000   0.000000
    18  O   -0.000721   0.002169  -0.023075   0.001231   0.000849   0.000029
    19  H   -0.002284   0.001395   0.015189   0.001473  -0.000279   0.000000
    20  H   -0.000108  -0.000001   0.000147  -0.000212  -0.000003   0.000000
    21  O   -0.000313   0.000031   0.000137  -0.000078  -0.000001   0.000000
    22  H   -0.000028   0.000002   0.000001   0.000001   0.000000   0.000000
    23  H    0.000007   0.000000   0.000002   0.000000   0.000000   0.000000
    24  O   -0.000041   0.000014  -0.140435   0.004281   0.000878  -0.097145
    25  H    0.000003   0.000000   0.002776  -0.000412   0.000062   0.003360
    26  H    0.000006  -0.000003   0.007544   0.000628   0.000987   0.003810
    27  O    0.000000   0.000000   0.000000   0.000000   0.000000   0.000000
    28  H    0.000000   0.000000   0.000000   0.000000   0.000000   0.000000
    29  H    0.000000   0.000000   0.000000   0.000000   0.000000   0.000000
    30  O    0.000000   0.000000   0.000000   0.000000   0.000000   0.000000
    31  H    0.000000   0.000000   0.000000   0.000000   0.000000   0.000000
    32  H    0.000000   0.000000   0.000001   0.000000   0.000000   0.000000
    33  O    0.000000   0.000000   0.000000   0.000000   0.000000   0.000000
    34  H    0.000000   0.000000   0.000000   0.000000   0.000000   0.000000
    35  H    0.000000   0.000000   0.000000   0.000000   0.000000   0.000000
    36  O    0.190106   0.207683  -0.088113   0.068585   0.001969   0.000063
    37  H    0.142334  -0.004571  -0.001441  -0.004978  -0.000006   0.000000
    38  H   -0.004571   0.166296   0.000935  -0.000785  -0.000145  -0.000001
    39  O   -0.001441   0.000935   9.125051   0.146477   0.191946  -0.002954
    40  H   -0.004978  -0.000785   0.146477   0.195056  -0.002320  -0.000047
    41  H   -0.000006  -0.000145   0.191946  -0.002320   0.162543   0.000785
    42  O    0.000000  -0.000001  -0.002954  -0.000047   0.000785   8.968705
    43  H    0.000000   0.000001  -0.000095   0.000006  -0.000043   0.156754
    44  H    0.000000   0.000000  -0.000383   0.000001   0.000004   0.200649
    45  O    0.000133  -0.000010  -0.003264  -0.000188   0.000058   0.000055
    46  H    0.000015  -0.000004   0.001870  -0.000044   0.000011  -0.000014
    47  H   -0.000002   0.000000  -0.000012   0.000000   0.000000   0.000001
    48  O    0.000000   0.000000   0.000000   0.000000   0.000000   0.000014
    49  H    0.000000   0.000000   0.000000   0.000000   0.000000   0.000000
    50  H    0.000000   0.000000   0.000000   0.000000   0.000000   0.000005
              43         44         45         46         47         48
     1  C    0.000074  -0.000118  -0.000858  -0.001586   0.000135   0.000937
     2  H    0.000000   0.000000   0.000000   0.000000   0.000000  -0.000006
     3  H   -0.000004   0.000001  -0.000005  -0.000006   0.000000  -0.000023
     4  C    0.000115   0.000173  -0.005284   0.002215  -0.000042  -0.001249
     5  H   -0.000003   0.000000  -0.000002  -0.000012   0.000000   0.000000
     6  C   -0.000367   0.000023   0.003826  -0.000308  -0.000071   0.000023
     7  H    0.000000   0.000000   0.000000   0.000000   0.000000   0.000000
     8  O    0.000000   0.000000  -0.000004  -0.000001   0.000000   0.000001
     9  O    0.000000   0.000000   0.000000   0.000000   0.000000   0.000000
    10  H    0.000000   0.000000   0.000000   0.000000   0.000000   0.000000
    11  H    0.000000   0.000000   0.000000   0.000000   0.000000   0.000000
    12  O    0.000000   0.000000  -0.000002   0.000000   0.000000   0.000001
    13  H    0.000000   0.000000   0.000001   0.000000   0.000000   0.000000
    14  H    0.000000   0.000000   0.000000   0.000000   0.000000   0.000000
    15  O    0.000003   0.000000   0.003410   0.016534  -0.002576  -0.000001
    16  H    0.000000   0.000000   0.001405   0.001236  -0.000069   0.000000
    17  H    0.000001   0.000000  -0.000605   0.000890  -0.000349   0.000000
    18  O   -0.000045   0.000001  -0.066888   0.024237   0.006669   0.000000
    19  H    0.000005   0.000000  -0.000808   0.001338  -0.000067   0.000000
    20  H    0.000000   0.000000   0.002496  -0.004186  -0.000526   0.000000
    21  O    0.000000   0.000000   0.001137   0.001333  -0.000267   0.000000
    22  H    0.000000   0.000000  -0.000056  -0.000024   0.000001   0.000000
    23  H    0.000000   0.000000  -0.000036  -0.000012   0.000000   0.000000
    24  O    0.049355   0.002470  -0.014023  -0.000841   0.000373   0.000002
    25  H   -0.003330  -0.000020   0.003868   0.000385   0.000027   0.000000
    26  H   -0.002514  -0.000045   0.002871  -0.000181   0.000013   0.000000
    27  O    0.000000   0.000000   0.000000   0.000000   0.000000   0.000000
    28  H    0.000000   0.000000   0.000000   0.000000   0.000000   0.000000
    29  H    0.000000   0.000000   0.000000   0.000000   0.000000   0.000000
    30  O    0.000000   0.000000   0.000347   0.000191  -0.000012   0.000000
    31  H    0.000000   0.000000  -0.000005  -0.000002   0.000000   0.000000
    32  H    0.000000   0.000000   0.000138   0.000064   0.000002   0.000000
    33  O    0.000000   0.000000   0.000000   0.000000   0.000000   0.000000
    34  H    0.000000   0.000000   0.000000   0.000000   0.000000   0.000000
    35  H    0.000000   0.000000   0.000000   0.000000   0.000000   0.000000
    36  O   -0.000038  -0.000002  -0.001746  -0.000404   0.000051   0.000000
    37  H    0.000000   0.000000   0.000133   0.000015  -0.000002   0.000000
    38  H    0.000001   0.000000  -0.000010  -0.000004   0.000000   0.000000
    39  O   -0.000095  -0.000383  -0.003264   0.001870  -0.000012   0.000000
    40  H    0.000006   0.000001  -0.000188  -0.000044   0.000000   0.000000
    41  H   -0.000043   0.000004   0.000058   0.000011   0.000000   0.000000
    42  O    0.156754   0.200649   0.000055  -0.000014   0.000001   0.000014
    43  H    0.211871  -0.003334   0.000098  -0.000002   0.000000   0.000002
    44  H   -0.003334   0.176823   0.000001   0.000000   0.000000   0.000001
    45  O    0.000098   0.000001   8.964641   0.145037   0.188353   0.000000
    46  H   -0.000002   0.000000   0.145037   0.271327  -0.004258   0.000000
    47  H    0.000000   0.000000   0.188353  -0.004258   0.161822   0.000000
    48  O    0.000002   0.000001   0.000000   0.000000   0.000000   8.646466
    49  H    0.000000   0.000000   0.000000   0.000000   0.000000   0.221084
    50  H    0.000000   0.000000   0.000000   0.000000   0.000000   0.217370
              49         50
     1  C   -0.000072   0.000437
     2  H    0.000000   0.000000
     3  H   -0.000001  -0.000002
     4  C   -0.000046  -0.000266
     5  H    0.000000   0.000000
     6  C    0.000004  -0.000010
     7  H    0.000000   0.000000
     8  O    0.000000   0.000000
     9  O    0.000000   0.000000
    10  H    0.000000   0.000000
    11  H    0.000000   0.000000
    12  O    0.000000   0.000000
    13  H    0.000000   0.000000
    14  H    0.000000   0.000000
    15  O    0.000000   0.000000
    16  H    0.000000   0.000000
    17  H    0.000000   0.000000
    18  O    0.000000   0.000000
    19  H    0.000000   0.000000
    20  H    0.000000   0.000000
    21  O    0.000000   0.000000
    22  H    0.000000   0.000000
    23  H    0.000000   0.000000
    24  O    0.000000  -0.000001
    25  H    0.000000   0.000000
    26  H    0.000000   0.000000
    27  O    0.000000   0.000000
    28  H    0.000000   0.000000
    29  H    0.000000   0.000000
    30  O    0.000000   0.000000
    31  H    0.000000   0.000000
    32  H    0.000000   0.000000
    33  O    0.000000   0.000000
    34  H    0.000000   0.000000
    35  H    0.000000   0.000000
    36  O    0.000000   0.000000
    37  H    0.000000   0.000000
    38  H    0.000000   0.000000
    39  O    0.000000   0.000000
    40  H    0.000000   0.000000
    41  H    0.000000   0.000000
    42  O    0.000000   0.000005
    43  H    0.000000   0.000000
    44  H    0.000000   0.000000
    45  O    0.000000   0.000000
    46  H    0.000000   0.000000
    47  H    0.000000   0.000000
    48  O    0.221084   0.217370
    49  H    0.192377  -0.010297
    50  H   -0.010297   0.305137
 Mulliken charges:
               1
     1  C   -0.462919
     2  H    0.283187
     3  H    0.229338
     4  C    0.259418
     5  H    0.218820
     6  C   -0.188433
     7  H    0.209983
     8  O   -0.491244
     9  O   -1.348046
    10  H    0.617045
    11  H    0.631433
    12  O   -1.137051
    13  H    0.610830
    14  H    0.524716
    15  O   -1.236431
    16  H    0.628820
    17  H    0.584379
    18  O   -1.190225
    19  H    0.599893
    20  H    0.584389
    21  O   -1.142475
    22  H    0.652179
    23  H    0.533776
    24  O   -1.145135
    25  H    0.505473
    26  H    0.639266
    27  O   -1.217107
    28  H    0.638639
    29  H    0.603761
    30  O   -1.245346
    31  H    0.610773
    32  H    0.648997
    33  O   -1.261618
    34  H    0.588832
    35  H    0.656553
    36  O   -1.259006
    37  H    0.681909
    38  H    0.627003
    39  O   -1.232610
    40  H    0.591457
    41  H    0.642862
    42  O   -1.233205
    43  H    0.591490
    44  H    0.623755
    45  O   -1.224091
    46  H    0.545202
    47  H    0.650804
    48  O   -1.084621
    49  H    0.596951
    50  H    0.487628
 Sum of Mulliken charges =   0.00000
 Mulliken charges with hydrogens summed into heavy atoms:
               1
     1  C    0.049606
     4  C    0.478238
     6  C    0.021549
     8  O   -0.491244
     9  O   -0.099568
    12  O   -0.001506
    15  O   -0.023231
    18  O   -0.005943
    21  O    0.043480
    24  O   -0.000396
    27  O    0.025294
    30  O    0.014424
    33  O   -0.016233
    36  O    0.049907
    39  O    0.001710
    42  O   -0.017960
    45  O   -0.028085
    48  O   -0.000042
 Electronic spatial extent (au):  <R**2>=          12193.3002
 Charge=              0.0000 electrons
 Dipole moment (field-independent basis, Debye):
    X=             -9.2660    Y=            -17.5302    Z=             -8.1947  Tot=             21.4550
 Quadrupole moment (field-independent basis, Debye-Ang):
   XX=           -154.9079   YY=           -108.4569   ZZ=           -118.9112
   XY=            -17.2892   XZ=             -4.1962   YZ=             13.8810
 Traceless Quadrupole moment (field-independent basis, Debye-Ang):
   XX=            -27.4826   YY=             18.9684   ZZ=              8.5142
   XY=            -17.2892   XZ=             -4.1962   YZ=             13.8810
 Octapole moment (field-independent basis, Debye-Ang**2):
  XXX=             19.6471  YYY=           -404.1376  ZZZ=            -44.6705  XYY=           -191.8315
  XXY=           -127.7081  XXZ=           -150.1236  XZZ=           -173.2163  YZZ=            -49.1953
  YYZ=            -79.5129  XYZ=           -104.8047
 Hexadecapole moment (field-independent basis, Debye-Ang**3):
 XXXX=          -7817.8795 YYYY=          -5139.3801 ZZZZ=          -2282.4026 XXXY=          -1180.7342
 XXXZ=           -233.5379 YYYX=           -178.0444 YYYZ=            -40.2592 ZZZX=           -179.8358
 ZZZY=            215.2964 XXYY=          -1649.6941 XXZZ=          -1534.3402 YYZZ=           -908.8175
 XXYZ=           -123.6045 YYXZ=             99.9415 ZZXY=            211.9962
 N-N= 1.116642366317D+03 E-N=-6.196361302109D+03  KE= 1.249213809440D+03
 Leave Link  601 at Fri Sep 14 17:50:27 2018, MaxMem=    33554432 cpu:        11.4
 (Enter /usr/local/pacerepov1/gaussian/G09D01LINDA/g09/l9999.exe)

 Test job not archived.
 1\1\GINC-RICH133-G13-21-L\SP\RLC-wPBE TD-FC\6-31+G(d)\C3H32O15\ROOT\14
 -Sep-2018\0\\#p td=(nstates=15)/6-31+g(d) lc-wpbe charge\\Acroleina in
  Water\\0,1\C,0,0.485154,0.480443,-1.430142\H,0,1.461403,0.187773,-1.0
 55732\H,0,0.429244,0.878853,-2.437062\C,0,-0.605127,0.346563,-0.658432
 \H,0,-1.591686,0.632893,-1.012412\C,0,-0.508516,-0.199107,0.712798\H,0
 ,-1.458487,-0.272107,1.272438\O,0,0.544883,-0.561317,1.236519\O,0,0.08
 7832,-1.747932,3.49055\H,0,0.258592,-1.240562,2.6459\H,0,0.705902,-1.4
 21892,4.2059\O,0,3.017052,0.909988,1.44472\H,0,2.907792,1.821108,1.047
 23\H,0,2.121032,0.474388,1.53095\O,0,0.647162,3.706628,-0.19999\H,0,1.
 057822,4.440088,-0.74169\H,0,-0.349378,3.771468,-0.25243\O,0,-1.692568
 ,3.749488,-0.50326\H,0,-2.634478,3.616898,-0.81196\H,0,-1.691228,3.998
 748,0.4652\O,0,-2.018378,4.498518,1.83999\H,0,-2.976978,4.241008,1.961
 94\H,0,-1.442698,3.926528,2.42435\O,0,-1.539378,3.305748,-4.2911\H,0,-
 0.893668,3.169758,-3.53972\H,0,-2.452138,3.475498,-3.9195\O,0,1.201342
 ,-3.885762,3.12089\H,0,0.734072,-3.001712,3.13381\H,0,0.559862,-4.6056
 62,3.38592\O,0,2.741442,3.114158,0.59637\H,0,3.353962,3.577078,-0.0443
 6\H,0,1.794692,3.231888,0.29653\O,0,-2.076398,-2.483202,3.71814\H,0,-2
 .090848,-3.158342,4.45572\H,0,-1.145418,-2.137352,3.60109\O,0,-4.09641
 8,2.842888,-0.81354\H,0,-4.711868,3.588308,-0.55741\H,0,-4.598708,1.97
 8188,-0.80515\O,0,-3.509428,3.394908,-3.14382\H,0,-3.829628,3.246908,-
 2.20806\H,0,-4.142438,2.961308,-3.78515\O,0,-2.185858,1.312578,-5.5492
 2\H,0,-1.638928,1.959318,-5.01754\H,0,-2.316718,1.668608,-6.47454\O,0,
 -1.124408,5.703698,-1.99107\H,0,-1.141878,4.844468,-1.47972\H,0,-1.226
 428,6.470688,-1.35755\O,0,2.878072,-1.243162,-5.93948\H,0,2.914112,-0.
 294842,-6.2548\H,0,1.944472,-1.589552,-6.03105\\Version=EM64L-G09RevD.
 01\State=1-A\HF=-1758.9212929\RMSD=9.080e-09\PG=C01 [X(C3H32O15)]\\@


 One man practicing sportsmanship is far better than 50 preaching it.
 -- Knute K. Rockne
 Job cpu time:       0 days  3 hours 17 minutes 51.5 seconds.
 File lengths (MBytes):  RWF=    792 Int=      0 D2E=      0 Chk=     96 Scr=      2
 Normal termination of Gaussian 09 at Fri Sep 14 17:50:31 2018.
