 Entering Gaussian System, Link 0=g09
 Input=Acroleina_water_15_93c.gjf
 Output=Acroleina_water_15_93c.log
 Initial command:
 /usr/local/pacerepov1/gaussian/G09D01LINDA/g09/l1.exe /nv/hp18/holiveira7/scratch/22412046/Gau-14505.inp -scrdir=/nv/hp18/holiveira7/scratch/22412046/
 Entering Link 1 = /usr/local/pacerepov1/gaussian/G09D01LINDA/g09/l1.exe PID=     14506.
  
 Copyright (c) 1988,1990,1992,1993,1995,1998,2003,2009,2013,
            Gaussian, Inc.  All Rights Reserved.
  
 This is part of the Gaussian(R) 09 program.  It is based on
 the Gaussian(R) 03 system (copyright 2003, Gaussian, Inc.),
 the Gaussian(R) 98 system (copyright 1998, Gaussian, Inc.),
 the Gaussian(R) 94 system (copyright 1995, Gaussian, Inc.),
 the Gaussian 92(TM) system (copyright 1992, Gaussian, Inc.),
 the Gaussian 90(TM) system (copyright 1990, Gaussian, Inc.),
 the Gaussian 88(TM) system (copyright 1988, Gaussian, Inc.),
 the Gaussian 86(TM) system (copyright 1986, Carnegie Mellon
 University), and the Gaussian 82(TM) system (copyright 1983,
 Carnegie Mellon University). Gaussian is a federally registered
 trademark of Gaussian, Inc.
  
 This software contains proprietary and confidential information,
 including trade secrets, belonging to Gaussian, Inc.
  
 This software is provided under written license and may be
 used, copied, transmitted, or stored only in accord with that
 written license.
  
 The following legend is applicable only to US Government
 contracts under FAR:
  
                    RESTRICTED RIGHTS LEGEND
  
 Use, reproduction and disclosure by the US Government is
 subject to restrictions as set forth in subparagraphs (a)
 and (c) of the Commercial Computer Software - Restricted
 Rights clause in FAR 52.227-19.
  
 Gaussian, Inc.
 340 Quinnipiac St., Bldg. 40, Wallingford CT 06492
  
  
 ---------------------------------------------------------------
 Warning -- This program may not be used in any manner that
 competes with the business of Gaussian, Inc. or will provide
 assistance to any competitor of Gaussian, Inc.  The licensee
 of this program is prohibited from giving any competitor of
 Gaussian, Inc. access to this program.  By using this program,
 the user acknowledges that Gaussian, Inc. is engaged in the
 business of creating and licensing software in the field of
 computational chemistry and represents and warrants to the
 licensee that it is not a competitor of Gaussian, Inc. and that
 it will not use this program in any manner prohibited above.
 ---------------------------------------------------------------
  

 Cite this work as:
 Gaussian 09, Revision D.01,
 M. J. Frisch, G. W. Trucks, H. B. Schlegel, G. E. Scuseria, 
 M. A. Robb, J. R. Cheeseman, G. Scalmani, V. Barone, B. Mennucci, 
 G. A. Petersson, H. Nakatsuji, M. Caricato, X. Li, H. P. Hratchian, 
 A. F. Izmaylov, J. Bloino, G. Zheng, J. L. Sonnenberg, M. Hada, 
 M. Ehara, K. Toyota, R. Fukuda, J. Hasegawa, M. Ishida, T. Nakajima, 
 Y. Honda, O. Kitao, H. Nakai, T. Vreven, J. A. Montgomery, Jr., 
 J. E. Peralta, F. Ogliaro, M. Bearpark, J. J. Heyd, E. Brothers, 
 K. N. Kudin, V. N. Staroverov, T. Keith, R. Kobayashi, J. Normand, 
 K. Raghavachari, A. Rendell, J. C. Burant, S. S. Iyengar, J. Tomasi, 
 M. Cossi, N. Rega, J. M. Millam, M. Klene, J. E. Knox, J. B. Cross, 
 V. Bakken, C. Adamo, J. Jaramillo, R. Gomperts, R. E. Stratmann, 
 O. Yazyev, A. J. Austin, R. Cammi, C. Pomelli, J. W. Ochterski, 
 R. L. Martin, K. Morokuma, V. G. Zakrzewski, G. A. Voth, 
 P. Salvador, J. J. Dannenberg, S. Dapprich, A. D. Daniels, 
 O. Farkas, J. B. Foresman, J. V. Ortiz, J. Cioslowski, 
 and D. J. Fox, Gaussian, Inc., Wallingford CT, 2013.
 
 ******************************************
 Gaussian 09:  EM64L-G09RevD.01 24-Apr-2013
                14-Sep-2018 
 ******************************************
 %chk=Acrolina_Din_93.chk
 %nprocshared=10
 Will use up to   10 processors via shared memory.
 -------------------------------------------
 #p td=(nstates=15)/6-31+g(d) lc-wpbe charge
 -------------------------------------------
 1/18=10,28=-2,38=1,125=101/1;
 2/12=2,17=6,18=5,40=1/2;
 3/5=1,6=6,7=11,11=9,16=1,25=1,30=1,74=-41/1,2,8,3;
 4//1;
 5/5=2,38=5/2;
 8/6=1,10=2,108=15/1;
 9/41=15,42=1,70=2/14;
 6/7=2,8=2,9=2,10=2/1;
 99/5=1,9=1/99;
 Leave Link    1 at Fri Sep 14 17:54:18 2018, MaxMem=           0 cpu:         8.5
 (Enter /usr/local/pacerepov1/gaussian/G09D01LINDA/g09/l101.exe)
 ------------------
 Acroleina in Water
 ------------------
 Symbolic Z-matrix:
 Charge =  0 Multiplicity = 1
 C                     0.48515   0.48044  -1.43014 
 H                     1.4614    0.18777  -1.05573 
 H                     0.42924   0.87885  -2.43706 
 C                    -0.60513   0.34656  -0.65843 
 H                    -1.59169   0.63289  -1.01241 
 C                    -0.50852  -0.19911   0.7128 
 H                    -1.45849  -0.27211   1.27244 
 O                     0.54488  -0.56132   1.23652 
 O                    -0.79187  -0.27288   3.65075 
 H                    -0.46193  -0.0403    2.73584 
 H                    -0.01239  -0.39277   4.26563 
 O                     1.42842  -3.33926   2.07779 
 H                     0.96645  -2.48989   1.82246 
 H                     0.77708  -3.95089   2.52683 
 O                     0.21505   4.4242   -1.39446 
 H                     0.37155   5.21906  -1.98073 
 H                    -0.62602   4.55727  -0.87009 
 O                    -1.97516   5.18568  -0.60395 
 H                    -2.76876   4.8129   -1.08485 
 H                    -2.25136   5.49282   0.30676 
 O                     3.32597   2.19486   0.34709 
 H                     2.93822   3.09355   0.14201 
 H                     2.5861    1.53804   0.49266 
 O                     2.53441  -2.07654   4.00815 
 H                     3.25082  -1.49066   3.62925 
 H                     2.14372  -2.63898   3.2794 
 O                     2.53139   4.25269  -0.61032 
 H                     3.14739   4.77462  -1.20033 
 H                     1.58537   4.41062  -0.89344 
 O                    -4.17642   4.05913  -1.4888 
 H                    -4.75419   4.81695  -1.18563 
 H                    -4.71331   3.21555  -1.50271 
 O                     0.97564  -0.66058   5.2456 
 H                     1.47201   0.05121   5.74259 
 H                     1.62812  -1.30196   4.84196 
 O                    -1.17119   6.56247  -2.3183 
 H                    -1.56272   6.00311  -1.58762 
 H                    -1.10895   7.51287  -2.01353 
 O                    -4.61076   0.49504   2.75353 
 H                    -4.19048   1.19577   2.177 
 H                    -3.91609   0.09423   3.35088 
 O                    -3.15251  -0.89379   4.23193 
 H                    -2.97689  -1.86679   4.38179 
 H                    -2.28402  -0.41329   4.11005 
 O                     2.94916  -5.14296   1.439 
 H                     2.29563  -4.52673   1.87859 
 H                     3.30809  -5.78584   2.11568 
 O                     1.23353   4.8926   -4.59101 
 H                     1.29253   4.04189  -4.06864 
 H                     1.99289   4.93844  -5.2401 
 
 NAtoms=     50 NQM=       50 NQMF=       0 NMMI=      0 NMMIF=      0
                NMic=       0 NMicF=      0.
                    Isotopes and Nuclear Properties:
 (Nuclear quadrupole moments (NQMom) in fm**2, nuclear magnetic moments (NMagM)
  in nuclear magnetons)

  Atom         1           2           3           4           5           6           7           8           9          10
 IAtWgt=          12           1           1          12           1          12           1          16          16           1
 AtmWgt=  12.0000000   1.0078250   1.0078250  12.0000000   1.0078250  12.0000000   1.0078250  15.9949146  15.9949146   1.0078250
 NucSpn=           0           1           1           0           1           0           1           0           0           1
 AtZEff=   0.0000000   0.0000000   0.0000000   0.0000000   0.0000000   0.0000000   0.0000000   0.0000000   0.0000000   0.0000000
 NQMom=    0.0000000   0.0000000   0.0000000   0.0000000   0.0000000   0.0000000   0.0000000   0.0000000   0.0000000   0.0000000
 NMagM=    0.0000000   2.7928460   2.7928460   0.0000000   2.7928460   0.0000000   2.7928460   0.0000000   0.0000000   2.7928460
 AtZNuc=   6.0000000   1.0000000   1.0000000   6.0000000   1.0000000   6.0000000   1.0000000   8.0000000   8.0000000   1.0000000

  Atom        11          12          13          14          15          16          17          18          19          20
 IAtWgt=           1          16           1           1          16           1           1          16           1           1
 AtmWgt=   1.0078250  15.9949146   1.0078250   1.0078250  15.9949146   1.0078250   1.0078250  15.9949146   1.0078250   1.0078250
 NucSpn=           1           0           1           1           0           1           1           0           1           1
 AtZEff=   0.0000000   0.0000000   0.0000000   0.0000000   0.0000000   0.0000000   0.0000000   0.0000000   0.0000000   0.0000000
 NQMom=    0.0000000   0.0000000   0.0000000   0.0000000   0.0000000   0.0000000   0.0000000   0.0000000   0.0000000   0.0000000
 NMagM=    2.7928460   0.0000000   2.7928460   2.7928460   0.0000000   2.7928460   2.7928460   0.0000000   2.7928460   2.7928460
 AtZNuc=   1.0000000   8.0000000   1.0000000   1.0000000   8.0000000   1.0000000   1.0000000   8.0000000   1.0000000   1.0000000

  Atom        21          22          23          24          25          26          27          28          29          30
 IAtWgt=          16           1           1          16           1           1          16           1           1          16
 AtmWgt=  15.9949146   1.0078250   1.0078250  15.9949146   1.0078250   1.0078250  15.9949146   1.0078250   1.0078250  15.9949146
 NucSpn=           0           1           1           0           1           1           0           1           1           0
 AtZEff=   0.0000000   0.0000000   0.0000000   0.0000000   0.0000000   0.0000000   0.0000000   0.0000000   0.0000000   0.0000000
 NQMom=    0.0000000   0.0000000   0.0000000   0.0000000   0.0000000   0.0000000   0.0000000   0.0000000   0.0000000   0.0000000
 NMagM=    0.0000000   2.7928460   2.7928460   0.0000000   2.7928460   2.7928460   0.0000000   2.7928460   2.7928460   0.0000000
 AtZNuc=   8.0000000   1.0000000   1.0000000   8.0000000   1.0000000   1.0000000   8.0000000   1.0000000   1.0000000   8.0000000

  Atom        31          32          33          34          35          36          37          38          39          40
 IAtWgt=           1           1          16           1           1          16           1           1          16           1
 AtmWgt=   1.0078250   1.0078250  15.9949146   1.0078250   1.0078250  15.9949146   1.0078250   1.0078250  15.9949146   1.0078250
 NucSpn=           1           1           0           1           1           0           1           1           0           1
 AtZEff=   0.0000000   0.0000000   0.0000000   0.0000000   0.0000000   0.0000000   0.0000000   0.0000000   0.0000000   0.0000000
 NQMom=    0.0000000   0.0000000   0.0000000   0.0000000   0.0000000   0.0000000   0.0000000   0.0000000   0.0000000   0.0000000
 NMagM=    2.7928460   2.7928460   0.0000000   2.7928460   2.7928460   0.0000000   2.7928460   2.7928460   0.0000000   2.7928460
 AtZNuc=   1.0000000   1.0000000   8.0000000   1.0000000   1.0000000   8.0000000   1.0000000   1.0000000   8.0000000   1.0000000

  Atom        41          42          43          44          45          46          47          48          49          50
 IAtWgt=           1          16           1           1          16           1           1          16           1           1
 AtmWgt=   1.0078250  15.9949146   1.0078250   1.0078250  15.9949146   1.0078250   1.0078250  15.9949146   1.0078250   1.0078250
 NucSpn=           1           0           1           1           0           1           1           0           1           1
 AtZEff=   0.0000000   0.0000000   0.0000000   0.0000000   0.0000000   0.0000000   0.0000000   0.0000000   0.0000000   0.0000000
 NQMom=    0.0000000   0.0000000   0.0000000   0.0000000   0.0000000   0.0000000   0.0000000   0.0000000   0.0000000   0.0000000
 NMagM=    2.7928460   0.0000000   2.7928460   2.7928460   0.0000000   2.7928460   2.7928460   0.0000000   2.7928460   2.7928460
 AtZNuc=   1.0000000   8.0000000   1.0000000   1.0000000   8.0000000   1.0000000   1.0000000   8.0000000   1.0000000   1.0000000
 Background charge distribution read from input stream:
 Point Charges:
 XYZ=   -4.0496    4.7260   -3.9366 Q=   -0.8200 A=    0.0000 R=    0.0000 C=    0.0000
 XYZ=   -4.0813    4.3957   -2.9932 Q=    0.4100 A=    0.0000 R=    0.0000 C=    0.0000
 XYZ=   -4.8138    4.3375   -4.4516 Q=    0.4100 A=    0.0000 R=    0.0000 C=    0.0000
 XYZ=   -2.4624    3.2674   -4.9418 Q=   -0.8200 A=    0.0000 R=    0.0000 C=    0.0000
 XYZ=   -3.1613    3.8524   -4.5303 Q=    0.4100 A=    0.0000 R=    0.0000 C=    0.0000
 XYZ=   -1.8172    3.8312   -5.4575 Q=    0.4100 A=    0.0000 R=    0.0000 C=    0.0000
 XYZ=    2.4248   -6.0875   -0.6619 Q=   -0.8200 A=    0.0000 R=    0.0000 C=    0.0000
 XYZ=    2.5651   -5.6636    0.2329 Q=    0.4100 A=    0.0000 R=    0.0000 C=    0.0000
 XYZ=    3.2908   -6.1054   -1.1616 Q=    0.4100 A=    0.0000 R=    0.0000 C=    0.0000
 XYZ=   -0.4967   -2.6132    5.8731 Q=   -0.8200 A=    0.0000 R=    0.0000 C=    0.0000
 XYZ=   -0.0381   -1.7494    5.6644 Q=    0.4100 A=    0.0000 R=    0.0000 C=    0.0000
 XYZ=   -1.3308   -2.6882    5.3266 Q=    0.4100 A=    0.0000 R=    0.0000 C=    0.0000
 XYZ=    0.0674   -4.9856    3.1237 Q=   -0.8200 A=    0.0000 R=    0.0000 C=    0.0000
 XYZ=   -0.2032   -5.5325    2.3315 Q=    0.4100 A=    0.0000 R=    0.0000 C=    0.0000
 XYZ=    0.8296   -5.4322    3.5923 Q=    0.4100 A=    0.0000 R=    0.0000 C=    0.0000
 XYZ=   -3.9317    1.7047   -5.4842 Q=   -0.8200 A=    0.0000 R=    0.0000 C=    0.0000
 XYZ=   -3.7750    0.7412   -5.2670 Q=    0.4100 A=    0.0000 R=    0.0000 C=    0.0000
 XYZ=   -3.1133    2.2341   -5.2606 Q=    0.4100 A=    0.0000 R=    0.0000 C=    0.0000
 XYZ=   -2.7556    6.0187    1.5629 Q=   -0.8200 A=    0.0000 R=    0.0000 C=    0.0000
 XYZ=   -3.4343    5.2900    1.4704 Q=    0.4100 A=    0.0000 R=    0.0000 C=    0.0000
 XYZ=   -3.0553    6.6661    2.2637 Q=    0.4100 A=    0.0000 R=    0.0000 C=    0.0000
 XYZ=    4.5395   -0.9747    3.4343 Q=   -0.8200 A=    0.0000 R=    0.0000 C=    0.0000
 XYZ=    4.7622   -0.0587    3.7680 Q=    0.4100 A=    0.0000 R=    0.0000 C=    0.0000
 XYZ=    5.1182   -1.1930    2.6485 Q=    0.4100 A=    0.0000 R=    0.0000 C=    0.0000
 XYZ=    2.7219    0.1453   -6.5800 Q=   -0.8200 A=    0.0000 R=    0.0000 C=    0.0000
 XYZ=    3.0267    0.6390   -7.3945 Q=    0.4100 A=    0.0000 R=    0.0000 C=    0.0000
 XYZ=    1.8680    0.5458   -6.2476 Q=    0.4100 A=    0.0000 R=    0.0000 C=    0.0000
 XYZ=    3.4226    5.3692    1.2945 Q=   -0.8200 A=    0.0000 R=    0.0000 C=    0.0000
 XYZ=    2.9188    4.8459    0.6072 Q=    0.4100 A=    0.0000 R=    0.0000 C=    0.0000
 XYZ=    3.6465    6.2722    0.9277 Q=    0.4100 A=    0.0000 R=    0.0000 C=    0.0000
 XYZ=    3.8308   -0.9806   -4.5371 Q=   -0.8200 A=    0.0000 R=    0.0000 C=    0.0000
 XYZ=    3.3576   -0.6375   -5.3485 Q=    0.4100 A=    0.0000 R=    0.0000 C=    0.0000
 XYZ=    4.3558   -0.2392   -4.1190 Q=    0.4100 A=    0.0000 R=    0.0000 C=    0.0000
 XYZ=   -4.5070    4.4648    1.4147 Q=   -0.8200 A=    0.0000 R=    0.0000 C=    0.0000
 XYZ=   -4.9664    4.9748    0.6875 Q=    0.4100 A=    0.0000 R=    0.0000 C=    0.0000
 XYZ=   -5.1290    4.3571    2.1903 Q=    0.4100 A=    0.0000 R=    0.0000 C=    0.0000
 XYZ=    1.0079    6.5966   -3.0463 Q=   -0.8200 A=    0.0000 R=    0.0000 C=    0.0000
 XYZ=    0.0378    6.6550   -2.8106 Q=    0.4100 A=    0.0000 R=    0.0000 C=    0.0000
 XYZ=    1.1210    6.0129   -3.8504 Q=    0.4100 A=    0.0000 R=    0.0000 C=    0.0000
 XYZ=    0.4091   -7.0019   -0.3884 Q=   -0.8200 A=    0.0000 R=    0.0000 C=    0.0000
 XYZ=    1.3289   -6.6510   -0.5642 Q=    0.4100 A=    0.0000 R=    0.0000 C=    0.0000
 XYZ=    0.3850   -7.9834   -0.5781 Q=    0.4100 A=    0.0000 R=    0.0000 C=    0.0000
 XYZ=    5.1612   -5.0074    0.3219 Q=   -0.8200 A=    0.0000 R=    0.0000 C=    0.0000
 XYZ=    4.2314   -5.0156    0.6900 Q=    0.4100 A=    0.0000 R=    0.0000 C=    0.0000
 XYZ=    5.1719   -5.4664   -0.5665 Q=    0.4100 A=    0.0000 R=    0.0000 C=    0.0000
 XYZ=   -2.4153    6.4209   -4.3293 Q=   -0.8200 A=    0.0000 R=    0.0000 C=    0.0000
 XYZ=   -2.0138    6.5195   -3.4187 Q=    0.4100 A=    0.0000 R=    0.0000 C=    0.0000
 XYZ=   -3.2099    5.8157   -4.2794 Q=    0.4100 A=    0.0000 R=    0.0000 C=    0.0000
 XYZ=    5.5997    1.9816   -0.0631 Q=   -0.8200 A=    0.0000 R=    0.0000 C=    0.0000
 XYZ=    5.8298    2.1495   -1.0217 Q=    0.4100 A=    0.0000 R=    0.0000 C=    0.0000
 XYZ=    4.6054    1.9589    0.0419 Q=    0.4100 A=    0.0000 R=    0.0000 C=    0.0000
 XYZ=    1.8979    5.6665    3.2721 Q=   -0.8200 A=    0.0000 R=    0.0000 C=    0.0000
 XYZ=    1.5642    6.5690    2.9996 Q=    0.4100 A=    0.0000 R=    0.0000 C=    0.0000
 XYZ=    2.4720    5.2900    2.5450 Q=    0.4100 A=    0.0000 R=    0.0000 C=    0.0000
 XYZ=   -2.8687   -6.1125    0.9343 Q=   -0.8200 A=    0.0000 R=    0.0000 C=    0.0000
 XYZ=   -3.0519   -7.0167    0.5485 Q=    0.4100 A=    0.0000 R=    0.0000 C=    0.0000
 XYZ=   -2.9234   -5.4241    0.2110 Q=    0.4100 A=    0.0000 R=    0.0000 C=    0.0000
 XYZ=    3.2347   -3.0077    6.1246 Q=   -0.8200 A=    0.0000 R=    0.0000 C=    0.0000
 XYZ=    3.1102   -2.7888    5.1568 Q=    0.4100 A=    0.0000 R=    0.0000 C=    0.0000
 XYZ=    3.3052   -2.1606    6.6514 Q=    0.4100 A=    0.0000 R=    0.0000 C=    0.0000
 XYZ=   -1.0425    4.9629   -5.7210 Q=   -0.8200 A=    0.0000 R=    0.0000 C=    0.0000
 XYZ=   -0.1290    5.1163   -5.3441 Q=    0.4100 A=    0.0000 R=    0.0000 C=    0.0000
 XYZ=   -1.6992    5.5555   -5.2545 Q=    0.4100 A=    0.0000 R=    0.0000 C=    0.0000
 XYZ=   -2.6583   -2.9987    4.8903 Q=   -0.8200 A=    0.0000 R=    0.0000 C=    0.0000
 XYZ=   -2.9643   -3.1143    5.8353 Q=    0.4100 A=    0.0000 R=    0.0000 C=    0.0000
 XYZ=   -2.3693   -3.8828    4.5231 Q=    0.4100 A=    0.0000 R=    0.0000 C=    0.0000
 XYZ=    6.2693   -3.0055   -0.3049 Q=   -0.8200 A=    0.0000 R=    0.0000 C=    0.0000
 XYZ=    5.6222   -3.6410    0.1164 Q=    0.4100 A=    0.0000 R=    0.0000 C=    0.0000
 XYZ=    7.1141   -3.4909   -0.5304 Q=    0.4100 A=    0.0000 R=    0.0000 C=    0.0000
 XYZ=   -6.6292    2.6369    0.8098 Q=   -0.8200 A=    0.0000 R=    0.0000 C=    0.0000
 XYZ=   -5.8325    3.2053    1.0156 Q=    0.4100 A=    0.0000 R=    0.0000 C=    0.0000
 XYZ=   -6.5878    2.3377   -0.1435 Q=    0.4100 A=    0.0000 R=    0.0000 C=    0.0000
 XYZ=   -6.3266    1.7431   -1.5838 Q=   -0.8200 A=    0.0000 R=    0.0000 C=    0.0000
 XYZ=   -6.2088    0.7509   -1.6267 Q=    0.4100 A=    0.0000 R=    0.0000 C=    0.0000
 XYZ=   -6.7561    2.0645   -2.4277 Q=    0.4100 A=    0.0000 R=    0.0000 C=    0.0000
 XYZ=   -0.9825   -6.7870    1.7030 Q=   -0.8200 A=    0.0000 R=    0.0000 C=    0.0000
 XYZ=   -0.3674   -6.8665    0.9184 Q=    0.4100 A=    0.0000 R=    0.0000 C=    0.0000
 XYZ=   -1.8704   -6.4436    1.3969 Q=    0.4100 A=    0.0000 R=    0.0000 C=    0.0000
 XYZ=   -1.1794    7.9075    1.0032 Q=   -0.8200 A=    0.0000 R=    0.0000 C=    0.0000
 XYZ=   -1.5535    8.6314    1.5829 Q=    0.4100 A=    0.0000 R=    0.0000 C=    0.0000
 XYZ=   -1.7856    7.1126    1.0298 Q=    0.4100 A=    0.0000 R=    0.0000 C=    0.0000
 XYZ=   -5.8235   -1.3770    2.2411 Q=   -0.8200 A=    0.0000 R=    0.0000 C=    0.0000
 XYZ=   -5.2715   -0.5817    2.4920 Q=    0.4100 A=    0.0000 R=    0.0000 C=    0.0000
 XYZ=   -5.3241   -2.2137    2.4659 Q=    0.4100 A=    0.0000 R=    0.0000 C=    0.0000
 XYZ=    6.0226   -1.5635    1.7385 Q=   -0.8200 A=    0.0000 R=    0.0000 C=    0.0000
 XYZ=    5.9827   -2.0511    0.8663 Q=    0.4100 A=    0.0000 R=    0.0000 C=    0.0000
 XYZ=    6.4454   -2.1502    2.4292 Q=    0.4100 A=    0.0000 R=    0.0000 C=    0.0000
 XYZ=   -2.0182   -5.2444    4.3210 Q=   -0.8200 A=    0.0000 R=    0.0000 C=    0.0000
 XYZ=   -1.1245   -5.2804    3.8738 Q=    0.4100 A=    0.0000 R=    0.0000 C=    0.0000
 XYZ=   -2.0237   -5.8648    5.1053 Q=    0.4100 A=    0.0000 R=    0.0000 C=    0.0000
 XYZ=    5.4496   -2.7048   -4.2645 Q=   -0.8200 A=    0.0000 R=    0.0000 C=    0.0000
 XYZ=    5.9865   -2.5756   -3.4308 Q=    0.4100 A=    0.0000 R=    0.0000 C=    0.0000
 XYZ=    4.7687   -1.9761   -4.3387 Q=    0.4100 A=    0.0000 R=    0.0000 C=    0.0000
 XYZ=    6.4535   -1.7313   -2.1729 Q=   -0.8200 A=    0.0000 R=    0.0000 C=    0.0000
 XYZ=    7.4368   -1.5509   -2.1974 Q=    0.4100 A=    0.0000 R=    0.0000 C=    0.0000
 XYZ=    6.2289   -2.2419   -1.3429 Q=    0.4100 A=    0.0000 R=    0.0000 C=    0.0000
 XYZ=   -6.1783    1.3559    4.3022 Q=   -0.8200 A=    0.0000 R=    0.0000 C=    0.0000
 XYZ=   -5.4879    1.1307    3.6147 Q=    0.4100 A=    0.0000 R=    0.0000 C=    0.0000
 XYZ=   -6.3573    0.5527    4.8703 Q=    0.4100 A=    0.0000 R=    0.0000 C=    0.0000
 XYZ=   -5.6581    5.4996   -0.4564 Q=   -0.8200 A=    0.0000 R=    0.0000 C=    0.0000
 XYZ=   -5.3238    6.4421   -0.4529 Q=    0.4100 A=    0.0000 R=    0.0000 C=    0.0000
 XYZ=   -6.4066    5.4139   -1.1140 Q=    0.4100 A=    0.0000 R=    0.0000 C=    0.0000
 XYZ=    1.3329   -4.4218    6.1089 Q=   -0.8200 A=    0.0000 R=    0.0000 C=    0.0000
 XYZ=    2.1944   -3.9574    6.3140 Q=    0.4100 A=    0.0000 R=    0.0000 C=    0.0000
 XYZ=    0.5829   -3.7610    6.1381 Q=    0.4100 A=    0.0000 R=    0.0000 C=    0.0000
 XYZ=   -5.5840    3.4222   -5.2781 Q=   -0.8200 A=    0.0000 R=    0.0000 C=    0.0000
 XYZ=   -5.8023    3.6600   -6.2245 Q=    0.4100 A=    0.0000 R=    0.0000 C=    0.0000
 XYZ=   -4.9724    2.6311   -5.2659 Q=    0.4100 A=    0.0000 R=    0.0000 C=    0.0000
 XYZ=    2.1042    0.9823    6.4821 Q=   -0.8200 A=    0.0000 R=    0.0000 C=    0.0000
 XYZ=    2.6039    0.1604    6.7558 Q=    0.4100 A=    0.0000 R=    0.0000 C=    0.0000
 XYZ=    2.7461    1.6568    6.1176 Q=    0.4100 A=    0.0000 R=    0.0000 C=    0.0000
 XYZ=    5.5589   -2.6162    4.9631 Q=   -0.8200 A=    0.0000 R=    0.0000 C=    0.0000
 XYZ=    5.2036   -1.9346    4.3233 Q=    0.4100 A=    0.0000 R=    0.0000 C=    0.0000
 XYZ=    4.8048   -3.1769    5.3053 Q=    0.4100 A=    0.0000 R=    0.0000 C=    0.0000
 XYZ=    5.6120    0.3068   -3.7340 Q=   -0.8200 A=    0.0000 R=    0.0000 C=    0.0000
 XYZ=    6.4129    0.4756   -4.3085 Q=    0.4100 A=    0.0000 R=    0.0000 C=    0.0000
 XYZ=    5.7829   -0.4857   -3.1486 Q=    0.4100 A=    0.0000 R=    0.0000 C=    0.0000
 XYZ=    4.6949   -6.2624   -1.5835 Q=   -0.8200 A=    0.0000 R=    0.0000 C=    0.0000
 XYZ=    5.5101   -6.8414   -1.5629 Q=    0.4100 A=    0.0000 R=    0.0000 C=    0.0000
 XYZ=    4.7649   -5.6151   -2.3425 Q=    0.4100 A=    0.0000 R=    0.0000 C=    0.0000
 XYZ=    2.5922    7.9247   -1.8382 Q=   -0.8200 A=    0.0000 R=    0.0000 C=    0.0000
 XYZ=    3.4661    7.4428   -1.9016 Q=    0.4100 A=    0.0000 R=    0.0000 C=    0.0000
 XYZ=    1.8736    7.3680   -2.2549 Q=    0.4100 A=    0.0000 R=    0.0000 C=    0.0000
 XYZ=    5.2867   -5.0376   -3.4820 Q=   -0.8200 A=    0.0000 R=    0.0000 C=    0.0000
 XYZ=    5.2050   -4.0895   -3.7893 Q=    0.4100 A=    0.0000 R=    0.0000 C=    0.0000
 XYZ=    4.9606   -5.6505   -4.2017 Q=    0.4100 A=    0.0000 R=    0.0000 C=    0.0000
 XYZ=    6.1143    2.1747   -2.2790 Q=   -0.8200 A=    0.0000 R=    0.0000 C=    0.0000
 XYZ=    5.9605    3.0477   -2.7419 Q=    0.4100 A=    0.0000 R=    0.0000 C=    0.0000
 XYZ=    5.6847    1.4392   -2.8030 Q=    0.4100 A=    0.0000 R=    0.0000 C=    0.0000
 XYZ=    0.9493    6.1764    5.4524 Q=   -0.8200 A=    0.0000 R=    0.0000 C=    0.0000
 XYZ=    1.3296    5.7995    4.6078 Q=    0.4100 A=    0.0000 R=    0.0000 C=    0.0000
 XYZ=    1.0176    5.4955    6.1816 Q=    0.4100 A=    0.0000 R=    0.0000 C=    0.0000
 XYZ=   -4.9785   -1.6448    5.7677 Q=   -0.8200 A=    0.0000 R=    0.0000 C=    0.0000
 XYZ=   -4.3011   -1.2074    5.1763 Q=    0.4100 A=    0.0000 R=    0.0000 C=    0.0000
 XYZ=   -4.5108   -2.1638    6.4831 Q=    0.4100 A=    0.0000 R=    0.0000 C=    0.0000
 XYZ=    1.1115    7.7292    2.0213 Q=   -0.8200 A=    0.0000 R=    0.0000 C=    0.0000
 XYZ=    1.1314    8.5559    2.5837 Q=    0.4100 A=    0.0000 R=    0.0000 C=    0.0000
 XYZ=    0.2052    7.6267    1.6114 Q=    0.4100 A=    0.0000 R=    0.0000 C=    0.0000
 XYZ=   -1.4614   -1.8588    7.8127 Q=   -0.8200 A=    0.0000 R=    0.0000 C=    0.0000
 XYZ=   -0.9759   -2.2643    7.0383 Q=    0.4100 A=    0.0000 R=    0.0000 C=    0.0000
 XYZ=   -1.0233   -2.1418    8.6659 Q=    0.4100 A=    0.0000 R=    0.0000 C=    0.0000
 XYZ=    7.0262    0.2465    0.6542 Q=   -0.8200 A=    0.0000 R=    0.0000 C=    0.0000
 XYZ=    6.3086    0.9233    0.4897 Q=    0.4100 A=    0.0000 R=    0.0000 C=    0.0000
 XYZ=    6.6375   -0.5423    1.1305 Q=    0.4100 A=    0.0000 R=    0.0000 C=    0.0000
 XYZ=    5.1088    5.0596    2.9163 Q=   -0.8200 A=    0.0000 R=    0.0000 C=    0.0000
 XYZ=    4.7593    4.9964    3.8512 Q=    0.4100 A=    0.0000 R=    0.0000 C=    0.0000
 XYZ=    4.3419    5.0896    2.2752 Q=    0.4100 A=    0.0000 R=    0.0000 C=    0.0000
 XYZ=    5.2499    1.1680    4.7370 Q=   -0.8200 A=    0.0000 R=    0.0000 C=    0.0000
 XYZ=    5.5484    0.4494    5.3652 Q=    0.4100 A=    0.0000 R=    0.0000 C=    0.0000
 XYZ=    4.6348    1.7947    5.2156 Q=    0.4100 A=    0.0000 R=    0.0000 C=    0.0000
 XYZ=   -1.3451    4.2064   -7.9842 Q=   -0.8200 A=    0.0000 R=    0.0000 C=    0.0000
 XYZ=   -1.2014    4.4071   -7.0151 Q=    0.4100 A=    0.0000 R=    0.0000 C=    0.0000
 XYZ=   -2.0944    4.7690   -8.3335 Q=    0.4100 A=    0.0000 R=    0.0000 C=    0.0000
 XYZ=   -1.1017    8.5900   -1.3030 Q=   -0.8200 A=    0.0000 R=    0.0000 C=    0.0000
 XYZ=   -0.3769    9.1688   -1.6768 Q=    0.4100 A=    0.0000 R=    0.0000 C=    0.0000
 XYZ=   -0.9983    8.5257   -0.3104 Q=    0.4100 A=    0.0000 R=    0.0000 C=    0.0000
 XYZ=    1.5737   -6.3316    4.3745 Q=   -0.8200 A=    0.0000 R=    0.0000 C=    0.0000
 XYZ=    0.8622   -7.0097    4.5593 Q=    0.4100 A=    0.0000 R=    0.0000 C=    0.0000
 XYZ=    1.5816   -5.6493    5.1055 Q=    0.4100 A=    0.0000 R=    0.0000 C=    0.0000
 XYZ=    5.8846   -5.7096    2.4953 Q=   -0.8200 A=    0.0000 R=    0.0000 C=    0.0000
 XYZ=    5.4980   -5.3929    1.6291 Q=    0.4100 A=    0.0000 R=    0.0000 C=    0.0000
 XYZ=    5.1622   -6.1185    3.0530 Q=    0.4100 A=    0.0000 R=    0.0000 C=    0.0000
 XYZ=    4.3311   -1.4459   -7.5793 Q=   -0.8200 A=    0.0000 R=    0.0000 C=    0.0000
 XYZ=    4.5855   -2.2908   -7.1086 Q=    0.4100 A=    0.0000 R=    0.0000 C=    0.0000
 XYZ=    3.7242   -0.9081   -6.9940 Q=    0.4100 A=    0.0000 R=    0.0000 C=    0.0000
 XYZ=   -3.9018   -5.7726    3.0593 Q=   -0.8200 A=    0.0000 R=    0.0000 C=    0.0000
 XYZ=   -3.1954   -5.4365    3.6823 Q=    0.4100 A=    0.0000 R=    0.0000 C=    0.0000
 XYZ=   -3.4802   -6.0493    2.1957 Q=    0.4100 A=    0.0000 R=    0.0000 C=    0.0000
 XYZ=   -5.9241    4.1273    3.3302 Q=   -0.8200 A=    0.0000 R=    0.0000 C=    0.0000
 XYZ=   -6.7014    4.7075    3.0869 Q=    0.4100 A=    0.0000 R=    0.0000 C=    0.0000
 XYZ=   -6.2269    3.4106    3.9584 Q=    0.4100 A=    0.0000 R=    0.0000 C=    0.0000
 XYZ=   -5.1456   -3.8283    2.7634 Q=   -0.8200 A=    0.0000 R=    0.0000 C=    0.0000
 XYZ=   -5.8318   -3.7672    3.4883 Q=    0.4100 A=    0.0000 R=    0.0000 C=    0.0000
 XYZ=   -4.5754   -4.6363    2.9115 Q=    0.4100 A=    0.0000 R=    0.0000 C=    0.0000
 XYZ=    4.4981    5.7092   -1.7539 Q=   -0.8200 A=    0.0000 R=    0.0000 C=    0.0000
 XYZ=    5.1410    6.3205   -1.2923 Q=    0.4100 A=    0.0000 R=    0.0000 C=    0.0000
 XYZ=    4.9985    5.1093   -2.3782 Q=    0.4100 A=    0.0000 R=    0.0000 C=    0.0000
 XYZ=   -6.3353   -2.3334    0.1388 Q=   -0.8200 A=    0.0000 R=    0.0000 C=    0.0000
 XYZ=   -6.2296   -1.7792    0.9644 Q=    0.4100 A=    0.0000 R=    0.0000 C=    0.0000
 XYZ=   -6.3605   -3.3015    0.3881 Q=    0.4100 A=    0.0000 R=    0.0000 C=    0.0000
 XYZ=   -4.6577    1.6708   -7.6780 Q=   -0.8200 A=    0.0000 R=    0.0000 C=    0.0000
 XYZ=   -4.7444    0.7228   -7.9842 Q=    0.4100 A=    0.0000 R=    0.0000 C=    0.0000
 XYZ=   -4.3803    1.6866   -6.7173 Q=    0.4100 A=    0.0000 R=    0.0000 C=    0.0000
 XYZ=    3.7039    2.6018    5.7939 Q=   -0.8200 A=    0.0000 R=    0.0000 C=    0.0000
 XYZ=    4.2283    2.5472    6.6436 Q=    0.4100 A=    0.0000 R=    0.0000 C=    0.0000
 XYZ=    3.8341    3.5025    5.3793 Q=    0.4100 A=    0.0000 R=    0.0000 C=    0.0000
 XYZ=   -7.2876    2.9151   -3.7117 Q=   -0.8200 A=    0.0000 R=    0.0000 C=    0.0000
 XYZ=   -6.6479    3.0440   -4.4695 Q=    0.4100 A=    0.0000 R=    0.0000 C=    0.0000
 XYZ=   -8.1855    2.6633   -4.0727 Q=    0.4100 A=    0.0000 R=    0.0000 C=    0.0000
 XYZ=    6.5532    3.2138    1.6294 Q=   -0.8200 A=    0.0000 R=    0.0000 C=    0.0000
 XYZ=    5.9491    3.9029    2.0297 Q=    0.4100 A=    0.0000 R=    0.0000 C=    0.0000
 XYZ=    6.0716    2.7343    0.8958 Q=    0.4100 A=    0.0000 R=    0.0000 C=    0.0000
 XYZ=   -5.3492   -5.4769   -3.3275 Q=   -0.8200 A=    0.0000 R=    0.0000 C=    0.0000
 XYZ=   -5.6661   -5.2160   -4.2394 Q=    0.4100 A=    0.0000 R=    0.0000 C=    0.0000
 XYZ=   -4.4629   -5.0499   -3.1478 Q=    0.4100 A=    0.0000 R=    0.0000 C=    0.0000
 XYZ=    3.6104   -0.8372    7.0873 Q=   -0.8200 A=    0.0000 R=    0.0000 C=    0.0000
 XYZ=    3.6221   -0.6635    8.0720 Q=    0.4100 A=    0.0000 R=    0.0000 C=    0.0000
 XYZ=    4.4868   -0.5645    6.6903 Q=    0.4100 A=    0.0000 R=    0.0000 C=    0.0000
 XYZ=    3.4449   -6.7042    3.1019 Q=   -0.8200 A=    0.0000 R=    0.0000 C=    0.0000
 XYZ=    3.4412   -7.6530    2.7862 Q=    0.4100 A=    0.0000 R=    0.0000 C=    0.0000
 XYZ=    2.7197   -6.5751    3.7783 Q=    0.4100 A=    0.0000 R=    0.0000 C=    0.0000
 XYZ=    3.3652    7.5566    0.3144 Q=   -0.8200 A=    0.0000 R=    0.0000 C=    0.0000
 XYZ=    2.7583    7.7189    1.0926 Q=    0.4100 A=    0.0000 R=    0.0000 C=    0.0000
 XYZ=    2.8546    7.6767   -0.5370 Q=    0.4100 A=    0.0000 R=    0.0000 C=    0.0000
 XYZ=   -7.1313    5.2246   -2.5432 Q=   -0.8200 A=    0.0000 R=    0.0000 C=    0.0000
 XYZ=   -6.8328    5.8974   -3.2201 Q=    0.4100 A=    0.0000 R=    0.0000 C=    0.0000
 XYZ=   -7.1147    4.3116   -2.9509 Q=    0.4100 A=    0.0000 R=    0.0000 C=    0.0000
 XYZ=   -4.9306    7.6601   -0.8527 Q=   -0.8200 A=    0.0000 R=    0.0000 C=    0.0000
 XYZ=   -4.2245    8.1639   -1.3504 Q=    0.4100 A=    0.0000 R=    0.0000 C=    0.0000
 XYZ=   -5.5614    8.3067   -0.4236 Q=    0.4100 A=    0.0000 R=    0.0000 C=    0.0000
 XYZ=    4.9834   -3.3084   -6.4218 Q=   -0.8200 A=    0.0000 R=    0.0000 C=    0.0000
 XYZ=    5.1066   -3.0290   -5.4696 Q=    0.4100 A=    0.0000 R=    0.0000 C=    0.0000
 XYZ=    5.8774   -3.4667   -6.8411 Q=    0.4100 A=    0.0000 R=    0.0000 C=    0.0000
 XYZ=    1.3891    2.6677    7.9438 Q=   -0.8200 A=    0.0000 R=    0.0000 C=    0.0000
 XYZ=    1.6871    1.9870    7.2745 Q=    0.4100 A=    0.0000 R=    0.0000 C=    0.0000
 XYZ=    0.4565    2.4594    8.2384 Q=    0.4100 A=    0.0000 R=    0.0000 C=    0.0000
 XYZ=   -4.9165    6.0591    4.5024 Q=   -0.8200 A=    0.0000 R=    0.0000 C=    0.0000
 XYZ=   -5.6010    6.4278    5.1313 Q=    0.4100 A=    0.0000 R=    0.0000 C=    0.0000
 XYZ=   -5.3079    5.2897    3.9976 Q=    0.4100 A=    0.0000 R=    0.0000 C=    0.0000
 XYZ=   -3.2980    9.1780   -1.8769 Q=   -0.8200 A=    0.0000 R=    0.0000 C=    0.0000
 XYZ=   -3.6687    9.7955   -1.1832 Q=    0.4100 A=    0.0000 R=    0.0000 C=    0.0000
 XYZ=   -2.3837    8.8795   -1.6030 Q=    0.4100 A=    0.0000 R=    0.0000 C=    0.0000
 XYZ=   -7.1125   -0.8995   -1.7737 Q=   -0.8200 A=    0.0000 R=    0.0000 C=    0.0000
 XYZ=   -7.2399   -1.4835   -2.5754 Q=    0.4100 A=    0.0000 R=    0.0000 C=    0.0000
 XYZ=   -6.8277   -1.4592   -0.9955 Q=    0.4100 A=    0.0000 R=    0.0000 C=    0.0000
 XYZ=   -7.8614    1.4684    2.6122 Q=   -0.8200 A=    0.0000 R=    0.0000 C=    0.0000
 XYZ=   -7.4122    2.0386    1.9243 Q=    0.4100 A=    0.0000 R=    0.0000 C=    0.0000
 XYZ=   -7.3037    1.4455    3.4420 Q=    0.4100 A=    0.0000 R=    0.0000 C=    0.0000
 XYZ=   -1.1587   -8.9017    2.5494 Q=   -0.8200 A=    0.0000 R=    0.0000 C=    0.0000
 XYZ=   -1.1716   -7.9437    2.2628 Q=    0.4100 A=    0.0000 R=    0.0000 C=    0.0000
 XYZ=   -0.7498   -9.4601    1.8277 Q=    0.4100 A=    0.0000 R=    0.0000 C=    0.0000
 XYZ=    7.2612    1.7982    3.4726 Q=   -0.8200 A=    0.0000 R=    0.0000 C=    0.0000
 XYZ=    6.9229    2.2168    2.6298 Q=    0.4100 A=    0.0000 R=    0.0000 C=    0.0000
 XYZ=    6.4961    1.3961    3.9755 Q=    0.4100 A=    0.0000 R=    0.0000 C=    0.0000
 XYZ=   -6.3752   -4.5153    0.8793 Q=   -0.8200 A=    0.0000 R=    0.0000 C=    0.0000
 XYZ=   -6.1109   -5.0359    0.0674 Q=    0.4100 A=    0.0000 R=    0.0000 C=    0.0000
 XYZ=   -5.6099   -4.4895    1.5224 Q=    0.4100 A=    0.0000 R=    0.0000 C=    0.0000
 XYZ=    6.9399   -3.4921    3.0870 Q=   -0.8200 A=    0.0000 R=    0.0000 C=    0.0000
 XYZ=    6.5295   -3.0707    3.8957 Q=    0.4100 A=    0.0000 R=    0.0000 C=    0.0000
 XYZ=    6.4797   -4.3585    2.8928 Q=    0.4100 A=    0.0000 R=    0.0000 C=    0.0000
 XYZ=   -3.2700    8.9588   -4.3545 Q=   -0.8200 A=    0.0000 R=    0.0000 C=    0.0000
 XYZ=   -3.2812    8.9700   -3.3546 Q=    0.4100 A=    0.0000 R=    0.0000 C=    0.0000
 XYZ=   -2.9058    8.0840   -4.6739 Q=    0.4100 A=    0.0000 R=    0.0000 C=    0.0000
 XYZ=    3.1768    5.1831   -6.1142 Q=   -0.8200 A=    0.0000 R=    0.0000 C=    0.0000
 XYZ=    4.0238    5.0611   -5.5967 Q=    0.4100 A=    0.0000 R=    0.0000 C=    0.0000
 XYZ=    3.3929    5.5039   -7.0363 Q=    0.4100 A=    0.0000 R=    0.0000 C=    0.0000
 XYZ=    2.5914    3.8027   -8.1750 Q=   -0.8200 A=    0.0000 R=    0.0000 C=    0.0000
 XYZ=    2.7343    4.0400   -7.2141 Q=    0.4100 A=    0.0000 R=    0.0000 C=    0.0000
 XYZ=    2.8890    2.8612   -8.3335 Q=    0.4100 A=    0.0000 R=    0.0000 C=    0.0000
 XYZ=    5.8594   -0.6248    6.1744 Q=   -0.8200 A=    0.0000 R=    0.0000 C=    0.0000
 XYZ=    6.4652   -0.5264    6.9639 Q=    0.4100 A=    0.0000 R=    0.0000 C=    0.0000
 XYZ=    5.8383   -1.5827    5.8879 Q=    0.4100 A=    0.0000 R=    0.0000 C=    0.0000
 XYZ=    4.0268    4.9993    5.0245 Q=   -0.8200 A=    0.0000 R=    0.0000 C=    0.0000
 XYZ=    4.7559    5.1487    5.6924 Q=    0.4100 A=    0.0000 R=    0.0000 C=    0.0000
 XYZ=    3.3452    5.7265    5.1069 Q=    0.4100 A=    0.0000 R=    0.0000 C=    0.0000
 XYZ=   -3.6162    7.6816    3.6444 Q=   -0.8200 A=    0.0000 R=    0.0000 C=    0.0000
 XYZ=   -4.1765    6.9292    3.9909 Q=    0.4100 A=    0.0000 R=    0.0000 C=    0.0000
 XYZ=   -4.1082    8.5444    3.7605 Q=    0.4100 A=    0.0000 R=    0.0000 C=    0.0000
 XYZ=   -3.5058   -2.8002    7.1775 Q=   -0.8200 A=    0.0000 R=    0.0000 C=    0.0000
 XYZ=   -2.8432   -2.1601    7.5665 Q=    0.4100 A=    0.0000 R=    0.0000 C=    0.0000
 XYZ=   -3.4572   -3.6698    7.6690 Q=    0.4100 A=    0.0000 R=    0.0000 C=    0.0000
 XYZ=    7.5133   -5.3840   -2.5820 Q=   -0.8200 A=    0.0000 R=    0.0000 C=    0.0000
 XYZ=    6.5881   -5.3611   -2.9608 Q=    0.4100 A=    0.0000 R=    0.0000 C=    0.0000
 XYZ=    8.1508   -4.9741   -3.2344 Q=    0.4100 A=    0.0000 R=    0.0000 C=    0.0000
 XYZ=   -5.5681   -5.5569   -1.0462 Q=   -0.8200 A=    0.0000 R=    0.0000 C=    0.0000
 XYZ=   -5.6346   -5.3793   -2.0281 Q=    0.4100 A=    0.0000 R=    0.0000 C=    0.0000
 XYZ=   -5.5874   -6.5435   -0.8839 Q=    0.4100 A=    0.0000 R=    0.0000 C=    0.0000
 XYZ=    7.9400    1.3691   -1.1309 Q=   -0.8200 A=    0.0000 R=    0.0000 C=    0.0000
 XYZ=    7.1792    1.4626   -1.7731 Q=    0.4100 A=    0.0000 R=    0.0000 C=    0.0000
 XYZ=    7.6271    0.8895   -0.3111 Q=    0.4100 A=    0.0000 R=    0.0000 C=    0.0000
 XYZ=    5.8410    4.1102   -3.3118 Q=   -0.8200 A=    0.0000 R=    0.0000 C=    0.0000
 XYZ=    6.5492    4.6267   -2.8304 Q=    0.4100 A=    0.0000 R=    0.0000 C=    0.0000
 XYZ=    5.6349    4.5584   -4.1817 Q=    0.4100 A=    0.0000 R=    0.0000 C=    0.0000
 XYZ=    0.4767   -4.5870    8.4136 Q=   -0.8200 A=    0.0000 R=    0.0000 C=    0.0000
 XYZ=    0.8561   -4.5977    7.4885 Q=    0.4100 A=    0.0000 R=    0.0000 C=    0.0000
 XYZ=    1.2140   -4.7114    9.0777 Q=    0.4100 A=    0.0000 R=    0.0000 C=    0.0000
 XYZ=    0.8855    9.6042   -2.0345 Q=   -0.8200 A=    0.0000 R=    0.0000 C=    0.0000
 XYZ=    0.5357    9.8278   -2.9443 Q=    0.4100 A=    0.0000 R=    0.0000 C=    0.0000
 XYZ=    1.6794    9.0024   -2.1213 Q=    0.4100 A=    0.0000 R=    0.0000 C=    0.0000
 XYZ=   -2.9663    2.6511   -8.9149 Q=   -0.8200 A=    0.0000 R=    0.0000 C=    0.0000
 XYZ=   -3.5796    2.3800   -8.1730 Q=    0.4100 A=    0.0000 R=    0.0000 C=    0.0000
 XYZ=   -2.2762    3.2834   -8.5627 Q=    0.4100 A=    0.0000 R=    0.0000 C=    0.0000
 XYZ=    3.4036    1.5393   -8.4282 Q=   -0.8200 A=    0.0000 R=    0.0000 C=    0.0000
 XYZ=    4.3979    1.6247   -8.3634 Q=    0.4100 A=    0.0000 R=    0.0000 C=    0.0000
 XYZ=    3.1448    1.3722   -9.3796 Q=    0.4100 A=    0.0000 R=    0.0000 C=    0.0000
 XYZ=   -2.0485    0.4829    8.7811 Q=   -0.8200 A=    0.0000 R=    0.0000 C=    0.0000
 XYZ=   -1.7537   -0.3974    8.4092 Q=    0.4100 A=    0.0000 R=    0.0000 C=    0.0000
 XYZ=   -3.0038    0.4196    9.0698 Q=    0.4100 A=    0.0000 R=    0.0000 C=    0.0000
 XYZ=   -8.2832   -0.9422    2.3478 Q=   -0.8200 A=    0.0000 R=    0.0000 C=    0.0000
 XYZ=   -7.3959   -1.3388    2.1124 Q=    0.4100 A=    0.0000 R=    0.0000 C=    0.0000
 XYZ=   -8.1728    0.0340    2.5348 Q=    0.4100 A=    0.0000 R=    0.0000 C=    0.0000
 XYZ=   -0.3929    8.0184    5.7959 Q=   -0.8200 A=    0.0000 R=    0.0000 C=    0.0000
 XYZ=    0.1515    7.1962    5.6296 Q=    0.4100 A=    0.0000 R=    0.0000 C=    0.0000
 XYZ=   -1.3631    7.7769    5.8181 Q=    0.4100 A=    0.0000 R=    0.0000 C=    0.0000
 XYZ=   -6.3890   -3.3099    4.8463 Q=   -0.8200 A=    0.0000 R=    0.0000 C=    0.0000
 XYZ=   -7.2892   -2.8977    4.7060 Q=    0.4100 A=    0.0000 R=    0.0000 C=    0.0000
 XYZ=   -5.7608   -2.6223    5.2106 Q=    0.4100 A=    0.0000 R=    0.0000 C=    0.0000
 XYZ=   -2.1972    9.2212    2.5925 Q=   -0.8200 A=    0.0000 R=    0.0000 C=    0.0000
 XYZ=   -2.7863    8.4937    2.9443 Q=    0.4100 A=    0.0000 R=    0.0000 C=    0.0000
 XYZ=   -2.7566   10.0112    2.3418 Q=    0.4100 A=    0.0000 R=    0.0000 C=    0.0000
 XYZ=   -1.5398    4.5266    8.0636 Q=   -0.8200 A=    0.0000 R=    0.0000 C=    0.0000
 XYZ=   -0.6516    4.6657    7.6257 Q=    0.4100 A=    0.0000 R=    0.0000 C=    0.0000
 XYZ=   -1.6064    3.5837    8.3900 Q=    0.4100 A=    0.0000 R=    0.0000 C=    0.0000
 XYZ=   -3.3258   -8.2558    0.0524 Q=   -0.8200 A=    0.0000 R=    0.0000 C=    0.0000
 XYZ=   -4.2618   -8.0599   -0.2399 Q=    0.4100 A=    0.0000 R=    0.0000 C=    0.0000
 XYZ=   -3.1797   -9.2451    0.0618 Q=    0.4100 A=    0.0000 R=    0.0000 C=    0.0000
 XYZ=    0.8938    4.9136    7.6708 Q=   -0.8200 A=    0.0000 R=    0.0000 C=    0.0000
 XYZ=    1.2997    5.3758    8.4593 Q=    0.4100 A=    0.0000 R=    0.0000 C=    0.0000
 XYZ=    1.0519    3.9289    7.7439 Q=    0.4100 A=    0.0000 R=    0.0000 C=    0.0000
 XYZ=   -8.9028    4.2908    1.1605 Q=   -0.8200 A=    0.0000 R=    0.0000 C=    0.0000
 XYZ=   -8.2523    3.5324    1.1189 Q=    0.4100 A=    0.0000 R=    0.0000 C=    0.0000
 XYZ=   -9.7586    3.9738    1.5694 Q=    0.4100 A=    0.0000 R=    0.0000 C=    0.0000
 XYZ=   -2.8218    7.8014    5.7581 Q=   -0.8200 A=    0.0000 R=    0.0000 C=    0.0000
 XYZ=   -2.9650    7.6773    4.7762 Q=    0.4100 A=    0.0000 R=    0.0000 C=    0.0000
 XYZ=   -3.0972    8.7262    6.0208 Q=    0.4100 A=    0.0000 R=    0.0000 C=    0.0000
 XYZ=   -0.2820   -7.7376    4.7448 Q=   -0.8200 A=    0.0000 R=    0.0000 C=    0.0000
 XYZ=   -1.1144   -7.4923    5.2419 Q=    0.4100 A=    0.0000 R=    0.0000 C=    0.0000
 XYZ=   -0.5073   -8.3844    4.0161 Q=    0.4100 A=    0.0000 R=    0.0000 C=    0.0000
 XYZ=   -7.5279    2.9885    5.6888 Q=   -0.8200 A=    0.0000 R=    0.0000 C=    0.0000
 XYZ=   -7.0973    3.1015    6.5843 Q=    0.4100 A=    0.0000 R=    0.0000 C=    0.0000
 XYZ=   -7.0306    2.2970    5.1648 Q=    0.4100 A=    0.0000 R=    0.0000 C=    0.0000
 XYZ=   -6.9054   -0.5568    5.4766 Q=   -0.8200 A=    0.0000 R=    0.0000 C=    0.0000
 XYZ=   -7.5786   -1.2340    5.1796 Q=    0.4100 A=    0.0000 R=    0.0000 C=    0.0000
 XYZ=   -6.0656   -1.0221    5.7564 Q=    0.4100 A=    0.0000 R=    0.0000 C=    0.0000
 XYZ=    8.1879   -4.4618   -0.6586 Q=   -0.8200 A=    0.0000 R=    0.0000 C=    0.0000
 XYZ=    9.1738   -4.3599   -0.7913 Q=    0.4100 A=    0.0000 R=    0.0000 C=    0.0000
 XYZ=    7.8218   -5.0878   -1.3472 Q=    0.4100 A=    0.0000 R=    0.0000 C=    0.0000
 XYZ=    6.5096   -0.2941   -7.4161 Q=   -0.8200 A=    0.0000 R=    0.0000 C=    0.0000
 XYZ=    6.7077    0.0906   -6.5146 Q=    0.4100 A=    0.0000 R=    0.0000 C=    0.0000
 XYZ=    5.5600   -0.6065   -7.4438 Q=    0.4100 A=    0.0000 R=    0.0000 C=    0.0000
 XYZ=   -9.3389   -0.1994   -1.3144 Q=   -0.8200 A=    0.0000 R=    0.0000 C=    0.0000
 XYZ=   -9.3684    0.7732   -1.5453 Q=    0.4100 A=    0.0000 R=    0.0000 C=    0.0000
 XYZ=   -8.4110   -0.5464   -1.4513 Q=    0.4100 A=    0.0000 R=    0.0000 C=    0.0000
 XYZ=   -9.1026    4.0887   -1.2046 Q=   -0.8200 A=    0.0000 R=    0.0000 C=    0.0000
 XYZ=   -8.5058    4.7353   -1.6799 Q=    0.4100 A=    0.0000 R=    0.0000 C=    0.0000
 XYZ=   -9.0671    4.2638   -0.2206 Q=    0.4100 A=    0.0000 R=    0.0000 C=    0.0000
 XYZ=   -5.8811    3.7070   -7.5367 Q=   -0.8200 A=    0.0000 R=    0.0000 C=    0.0000
 XYZ=   -5.8770    4.2403   -8.3826 Q=    0.4100 A=    0.0000 R=    0.0000 C=    0.0000
 XYZ=   -5.4001    2.8429   -7.6853 Q=    0.4100 A=    0.0000 R=    0.0000 C=    0.0000
 XYZ=    5.5026    7.7277   -0.7300 Q=   -0.8200 A=    0.0000 R=    0.0000 C=    0.0000
 XYZ=    4.6280    7.7981   -0.2502 Q=    0.4100 A=    0.0000 R=    0.0000 C=    0.0000
 XYZ=    6.2513    7.8284   -0.0748 Q=    0.4100 A=    0.0000 R=    0.0000 C=    0.0000
 XYZ=    8.6713   -0.9656   -1.7122 Q=   -0.8200 A=    0.0000 R=    0.0000 C=    0.0000
 XYZ=    8.4456   -0.0004   -1.5795 Q=    0.4100 A=    0.0000 R=    0.0000 C=    0.0000
 XYZ=    9.1288   -1.3162   -0.8950 Q=    0.4100 A=    0.0000 R=    0.0000 C=    0.0000
 XYZ=   -1.6490   -1.2073  -10.3486 Q=   -0.8200 A=    0.0000 R=    0.0000 C=    0.0000
 XYZ=   -1.5694   -2.1434  -10.6914 Q=    0.4100 A=    0.0000 R=    0.0000 C=    0.0000
 XYZ=   -2.3317   -1.1768   -9.6185 Q=    0.4100 A=    0.0000 R=    0.0000 C=    0.0000
 XYZ=    4.2122   -5.2194   -7.7216 Q=   -0.8200 A=    0.0000 R=    0.0000 C=    0.0000
 XYZ=    4.8446   -5.2092   -8.4962 Q=    0.4100 A=    0.0000 R=    0.0000 C=    0.0000
 XYZ=    4.3854   -4.4249   -7.1396 Q=    0.4100 A=    0.0000 R=    0.0000 C=    0.0000
 XYZ=   -3.4153    6.0070    7.3387 Q=   -0.8200 A=    0.0000 R=    0.0000 C=    0.0000
 XYZ=   -3.1065    6.6146    6.6070 Q=    0.4100 A=    0.0000 R=    0.0000 C=    0.0000
 XYZ=   -2.7492    5.2718    7.4648 Q=    0.4100 A=    0.0000 R=    0.0000 C=    0.0000
 XYZ=   -0.0926    9.1980    3.6428 Q=   -0.8200 A=    0.0000 R=    0.0000 C=    0.0000
 XYZ=   -1.0126    9.2002    3.2509 Q=    0.4100 A=    0.0000 R=    0.0000 C=    0.0000
 XYZ=   -0.1003    8.6977    4.5086 Q=    0.4100 A=    0.0000 R=    0.0000 C=    0.0000
 XYZ=    9.1276    0.7216    1.6994 Q=   -0.8200 A=    0.0000 R=    0.0000 C=    0.0000
 XYZ=    8.7597    1.0236    2.5789 Q=    0.4100 A=    0.0000 R=    0.0000 C=    0.0000
 XYZ=    8.3735    0.5242    1.0728 Q=    0.4100 A=    0.0000 R=    0.0000 C=    0.0000
 XYZ=    0.5507    4.4255   -9.4639 Q=   -0.8200 A=    0.0000 R=    0.0000 C=    0.0000
 XYZ=   -0.2737    4.1089   -8.9947 Q=    0.4100 A=    0.0000 R=    0.0000 C=    0.0000
 XYZ=    1.3465    4.2756   -8.8771 Q=    0.4100 A=    0.0000 R=    0.0000 C=    0.0000
 XYZ=   -2.2596   -6.8292    5.9676 Q=   -0.8200 A=    0.0000 R=    0.0000 C=    0.0000
 XYZ=   -1.7376   -6.6868    6.8086 Q=    0.4100 A=    0.0000 R=    0.0000 C=    0.0000
 XYZ=   -3.1014   -7.3264    6.1780 Q=    0.4100 A=    0.0000 R=    0.0000 C=    0.0000
 XYZ=    8.7658   -4.2584    1.6917 Q=   -0.8200 A=    0.0000 R=    0.0000 C=    0.0000
 XYZ=    8.1073   -3.8901    2.3481 Q=    0.4100 A=    0.0000 R=    0.0000 C=    0.0000
 XYZ=    8.2990   -4.4655    0.8319 Q=    0.4100 A=    0.0000 R=    0.0000 C=    0.0000
 XYZ=    6.6988   -7.4216   -1.5703 Q=   -0.8200 A=    0.0000 R=    0.0000 C=    0.0000
 XYZ=    7.2894   -7.7613   -0.8383 Q=    0.4100 A=    0.0000 R=    0.0000 C=    0.0000
 XYZ=    7.1293   -6.6311   -2.0061 Q=    0.4100 A=    0.0000 R=    0.0000 C=    0.0000
 XYZ=   -5.6530   -5.0891   -5.7566 Q=   -0.8200 A=    0.0000 R=    0.0000 C=    0.0000
 XYZ=   -5.3632   -4.4672   -6.4841 Q=    0.4100 A=    0.0000 R=    0.0000 C=    0.0000
 XYZ=   -6.6421   -5.2262   -5.8095 Q=    0.4100 A=    0.0000 R=    0.0000 C=    0.0000
 XYZ=    8.0355   -6.4888    2.0512 Q=   -0.8200 A=    0.0000 R=    0.0000 C=    0.0000
 XYZ=    8.5572   -5.6553    1.8693 Q=    0.4100 A=    0.0000 R=    0.0000 C=    0.0000
 XYZ=    7.0676   -6.2600    2.1560 Q=    0.4100 A=    0.0000 R=    0.0000 C=    0.0000
 XYZ=   -5.0918   -0.6012   -8.5647 Q=   -0.8200 A=    0.0000 R=    0.0000 C=    0.0000
 XYZ=   -5.9807   -1.0551   -8.5029 Q=    0.4100 A=    0.0000 R=    0.0000 C=    0.0000
 XYZ=   -4.9364   -0.2995   -9.5054 Q=    0.4100 A=    0.0000 R=    0.0000 C=    0.0000
 XYZ=   -0.9396    2.5374    8.9538 Q=   -0.8200 A=    0.0000 R=    0.0000 C=    0.0000
 XYZ=   -1.3585    1.6295    8.9390 Q=    0.4100 A=    0.0000 R=    0.0000 C=    0.0000
 XYZ=   -0.4919    2.6835    9.8360 Q=    0.4100 A=    0.0000 R=    0.0000 C=    0.0000
 XYZ=    7.2887    0.6256   -5.5471 Q=   -0.8200 A=    0.0000 R=    0.0000 C=    0.0000
 XYZ=    7.5453    1.5500   -5.2646 Q=    0.4100 A=    0.0000 R=    0.0000 C=    0.0000
 XYZ=    8.0702    0.0126   -5.4309 Q=    0.4100 A=    0.0000 R=    0.0000 C=    0.0000
 XYZ=   -5.6443   -7.0382    4.2447 Q=   -0.8200 A=    0.0000 R=    0.0000 C=    0.0000
 XYZ=   -4.8590   -6.5599    3.8516 Q=    0.4100 A=    0.0000 R=    0.0000 C=    0.0000
 XYZ=   -6.2331   -6.3813    4.7157 Q=    0.4100 A=    0.0000 R=    0.0000 C=    0.0000
 XYZ=    5.5426    4.9616   -5.4788 Q=   -0.8200 A=    0.0000 R=    0.0000 C=    0.0000
 XYZ=    6.0743    5.8083   -5.4581 Q=    0.4100 A=    0.0000 R=    0.0000 C=    0.0000
 XYZ=    5.9042    4.3582   -6.1896 Q=    0.4100 A=    0.0000 R=    0.0000 C=    0.0000
 XYZ=    3.9622   -2.2811   -9.8047 Q=   -0.8200 A=    0.0000 R=    0.0000 C=    0.0000
 XYZ=    4.0467   -1.8373   -8.9126 Q=    0.4100 A=    0.0000 R=    0.0000 C=    0.0000
 XYZ=    4.8453   -2.6684  -10.0692 Q=    0.4100 A=    0.0000 R=    0.0000 C=    0.0000
 XYZ=    7.0335    6.2909    2.3637 Q=   -0.8200 A=    0.0000 R=    0.0000 C=    0.0000
 XYZ=    6.2414    5.8040    2.7318 Q=    0.4100 A=    0.0000 R=    0.0000 C=    0.0000
 XYZ=    7.8072    5.6615    2.2905 Q=    0.4100 A=    0.0000 R=    0.0000 C=    0.0000
 XYZ=   -7.6790    5.6456    2.8536 Q=   -0.8200 A=    0.0000 R=    0.0000 C=    0.0000
 XYZ=   -8.2873    5.4243    3.6159 Q=    0.4100 A=    0.0000 R=    0.0000 C=    0.0000
 XYZ=   -8.1239    5.4041    1.9912 Q=    0.4100 A=    0.0000 R=    0.0000 C=    0.0000
 XYZ=   -0.5891   -6.2074   -8.3507 Q=   -0.8200 A=    0.0000 R=    0.0000 C=    0.0000
 XYZ=   -0.2909   -5.2776   -8.5665 Q=    0.4100 A=    0.0000 R=    0.0000 C=    0.0000
 XYZ=   -1.4875   -6.1761   -7.9127 Q=    0.4100 A=    0.0000 R=    0.0000 C=    0.0000
 XYZ=    0.5282   -0.5268  -10.6163 Q=   -0.8200 A=    0.0000 R=    0.0000 C=    0.0000
 XYZ=    1.0424   -1.3666  -10.4418 Q=    0.4100 A=    0.0000 R=    0.0000 C=    0.0000
 XYZ=   -0.4438   -0.6899  -10.4468 Q=    0.4100 A=    0.0000 R=    0.0000 C=    0.0000
 XYZ=   -9.7885    1.9914   -1.9589 Q=   -0.8200 A=    0.0000 R=    0.0000 C=    0.0000
 XYZ=  -10.7820    1.9923   -2.0731 Q=    0.4100 A=    0.0000 R=    0.0000 C=    0.0000
 XYZ=   -9.4893    2.8893   -1.6358 Q=    0.4100 A=    0.0000 R=    0.0000 C=    0.0000
 XYZ=    5.4458    2.4543    7.4347 Q=   -0.8200 A=    0.0000 R=    0.0000 C=    0.0000
 XYZ=    6.2418    2.9289    7.0591 Q=    0.4100 A=    0.0000 R=    0.0000 C=    0.0000
 XYZ=    5.1580    2.9039    8.2803 Q=    0.4100 A=    0.0000 R=    0.0000 C=    0.0000
 XYZ=   -5.4257   -3.8132   -7.6466 Q=   -0.8200 A=    0.0000 R=    0.0000 C=    0.0000
 XYZ=   -5.2071   -4.3406   -8.4676 Q=    0.4100 A=    0.0000 R=    0.0000 C=    0.0000
 XYZ=   -5.9637   -3.0092   -7.9003 Q=    0.4100 A=    0.0000 R=    0.0000 C=    0.0000
 XYZ=    0.2497   10.1245   -4.3820 Q=   -0.8200 A=    0.0000 R=    0.0000 C=    0.0000
 XYZ=   -0.5970   10.5064   -4.7525 Q=    0.4100 A=    0.0000 R=    0.0000 C=    0.0000
 XYZ=    0.8538    9.8612   -5.1342 Q=    0.4100 A=    0.0000 R=    0.0000 C=    0.0000
 XYZ=   -7.2542    7.8697    2.4187 Q=   -0.8200 A=    0.0000 R=    0.0000 C=    0.0000
 XYZ=   -7.3692    6.8780    2.4758 Q=    0.4100 A=    0.0000 R=    0.0000 C=    0.0000
 XYZ=   -7.0765    8.2377    3.3314 Q=    0.4100 A=    0.0000 R=    0.0000 C=    0.0000
 XYZ=    0.4437   -4.2187   -9.5467 Q=   -0.8200 A=    0.0000 R=    0.0000 C=    0.0000
 XYZ=    1.0599   -3.5254   -9.9206 Q=    0.4100 A=    0.0000 R=    0.0000 C=    0.0000
 XYZ=    0.8035   -5.1292   -9.7506 Q=    0.4100 A=    0.0000 R=    0.0000 C=    0.0000
 XYZ=   -0.7023   -2.7798    9.7956 Q=   -0.8200 A=    0.0000 R=    0.0000 C=    0.0000
 XYZ=    0.1236   -3.2801    9.5354 Q=    0.4100 A=    0.0000 R=    0.0000 C=    0.0000
 XYZ=   -1.4336   -3.4293   10.0037 Q=    0.4100 A=    0.0000 R=    0.0000 C=    0.0000
 XYZ=   -3.1460    5.4331   -8.8690 Q=   -0.8200 A=    0.0000 R=    0.0000 C=    0.0000
 XYZ=   -2.9639    6.3470   -9.2319 Q=    0.4100 A=    0.0000 R=    0.0000 C=    0.0000
 XYZ=   -4.1295    5.2541   -8.8949 Q=    0.4100 A=    0.0000 R=    0.0000 C=    0.0000
 XYZ=    1.0823   11.1782   -0.0931 Q=   -0.8200 A=    0.0000 R=    0.0000 C=    0.0000
 XYZ=    1.9891   11.5970   -0.0436 Q=    0.4100 A=    0.0000 R=    0.0000 C=    0.0000
 XYZ=    0.9915   10.6811   -0.9560 Q=    0.4100 A=    0.0000 R=    0.0000 C=    0.0000
 XYZ=   -1.3334   -6.2057    8.2172 Q=   -0.8200 A=    0.0000 R=    0.0000 C=    0.0000
 XYZ=   -0.5368   -5.6246    8.3842 Q=    0.4100 A=    0.0000 R=    0.0000 C=    0.0000
 XYZ=   -2.1674   -5.6605    8.3025 Q=    0.4100 A=    0.0000 R=    0.0000 C=    0.0000
 XYZ=    8.5365    4.5040    1.8996 Q=   -0.8200 A=    0.0000 R=    0.0000 C=    0.0000
 XYZ=    8.9644    3.9994    2.6496 Q=    0.4100 A=    0.0000 R=    0.0000 C=    0.0000
 XYZ=    7.7297    4.0066    1.5809 Q=    0.4100 A=    0.0000 R=    0.0000 C=    0.0000
 XYZ=  -10.1195    1.2896    2.3093 Q=   -0.8200 A=    0.0000 R=    0.0000 C=    0.0000
 XYZ=   -9.1542    1.4242    2.5330 Q=    0.4100 A=    0.0000 R=    0.0000 C=    0.0000
 XYZ=  -10.2238    0.4515    1.7739 Q=    0.4100 A=    0.0000 R=    0.0000 C=    0.0000
 XYZ=    2.5119    1.0455  -10.6145 Q=   -0.8200 A=    0.0000 R=    0.0000 C=    0.0000
 XYZ=    2.1673    1.9101  -10.9803 Q=    0.4100 A=    0.0000 R=    0.0000 C=    0.0000
 XYZ=    1.7559    0.3972  -10.5236 Q=    0.4100 A=    0.0000 R=    0.0000 C=    0.0000
 XYZ=   -1.8380   10.8794   -4.9835 Q=   -0.8200 A=    0.0000 R=    0.0000 C=    0.0000
 XYZ=   -2.2500   11.7259   -4.6461 Q=    0.4100 A=    0.0000 R=    0.0000 C=    0.0000
 XYZ=   -2.3328   10.0954   -4.6086 Q=    0.4100 A=    0.0000 R=    0.0000 C=    0.0000
 XYZ=    2.4625    3.0905    9.9225 Q=   -0.8200 A=    0.0000 R=    0.0000 C=    0.0000
 XYZ=    3.4057    3.4028    9.8089 Q=    0.4100 A=    0.0000 R=    0.0000 C=    0.0000
 XYZ=    2.0494    2.9440    9.0237 Q=    0.4100 A=    0.0000 R=    0.0000 C=    0.0000
 XYZ=    5.6478    1.8111   -8.4925 Q=   -0.8200 A=    0.0000 R=    0.0000 C=    0.0000
 XYZ=    5.8967    2.5653   -7.8847 Q=    0.4100 A=    0.0000 R=    0.0000 C=    0.0000
 XYZ=    6.2710    1.0434   -8.3434 Q=    0.4100 A=    0.0000 R=    0.0000 C=    0.0000
 XYZ=    3.9947   -0.2596    9.2652 Q=   -0.8200 A=    0.0000 R=    0.0000 C=    0.0000
 XYZ=    4.9322    0.0557    9.1183 Q=    0.4100 A=    0.0000 R=    0.0000 C=    0.0000
 XYZ=    3.7053   -0.0237   10.1930 Q=    0.4100 A=    0.0000 R=    0.0000 C=    0.0000
 XYZ=   -8.3565   -2.2243    4.3908 Q=   -0.8200 A=    0.0000 R=    0.0000 C=    0.0000
 XYZ=   -8.3209   -1.5629    3.6417 Q=    0.4100 A=    0.0000 R=    0.0000 C=    0.0000
 XYZ=   -9.1639   -2.8047    4.2849 Q=    0.4100 A=    0.0000 R=    0.0000 C=    0.0000
 XYZ=   -6.9834   -5.3744    5.4439 Q=   -0.8200 A=    0.0000 R=    0.0000 C=    0.0000
 XYZ=   -7.9093   -5.5096    5.0911 Q=    0.4100 A=    0.0000 R=    0.0000 C=    0.0000
 XYZ=   -6.6350   -4.4895    5.1348 Q=    0.4100 A=    0.0000 R=    0.0000 C=    0.0000
 XYZ=   -6.3512    9.0983    0.4700 Q=   -0.8200 A=    0.0000 R=    0.0000 C=    0.0000
 XYZ=   -7.1226    9.5033   -0.0209 Q=    0.4100 A=    0.0000 R=    0.0000 C=    0.0000
 XYZ=   -6.6731    8.7080    1.3326 Q=    0.4100 A=    0.0000 R=    0.0000 C=    0.0000
 XYZ=   -5.7834   -7.8720   -0.5754 Q=   -0.8200 A=    0.0000 R=    0.0000 C=    0.0000
 XYZ=   -6.4658   -8.0121    0.1421 Q=    0.4100 A=    0.0000 R=    0.0000 C=    0.0000
 XYZ=   -5.7500   -8.6787   -1.1655 Q=    0.4100 A=    0.0000 R=    0.0000 C=    0.0000
 XYZ=    8.9711    3.4133   -1.4723 Q=   -0.8200 A=    0.0000 R=    0.0000 C=    0.0000
 XYZ=    8.4843    2.5477   -1.3545 Q=    0.4100 A=    0.0000 R=    0.0000 C=    0.0000
 XYZ=    9.4850    3.6224   -0.6403 Q=    0.4100 A=    0.0000 R=    0.0000 C=    0.0000
 XYZ=   -9.4421    2.3268   -4.6192 Q=   -0.8200 A=    0.0000 R=    0.0000 C=    0.0000
 XYZ=   -9.5304    2.2302   -3.6277 Q=    0.4100 A=    0.0000 R=    0.0000 C=    0.0000
 XYZ=  -10.3252    2.1444   -5.0517 Q=    0.4100 A=    0.0000 R=    0.0000 C=    0.0000
 XYZ=    8.7837    3.5116    4.4719 Q=   -0.8200 A=    0.0000 R=    0.0000 C=    0.0000
 XYZ=    7.9555    3.0166    4.2087 Q=    0.4100 A=    0.0000 R=    0.0000 C=    0.0000
 XYZ=    9.4928    2.8580    4.7363 Q=    0.4100 A=    0.0000 R=    0.0000 C=    0.0000
 XYZ=  -10.0968   -0.5938    0.8667 Q=   -0.8200 A=    0.0000 R=    0.0000 C=    0.0000
 XYZ=   -9.8624   -0.3002   -0.0600 Q=    0.4100 A=    0.0000 R=    0.0000 C=    0.0000
 XYZ=   -9.2583   -0.7661    1.3838 Q=    0.4100 A=    0.0000 R=    0.0000 C=    0.0000
 XYZ=    6.4222    0.5114    8.4022 Q=   -0.8200 A=    0.0000 R=    0.0000 C=    0.0000
 XYZ=    6.0691    1.2922    7.8867 Q=    0.4100 A=    0.0000 R=    0.0000 C=    0.0000
 XYZ=    7.2786    0.7677    8.8504 Q=    0.4100 A=    0.0000 R=    0.0000 C=    0.0000
 XYZ=   -4.8123   10.3475   -5.3460 Q=   -0.8200 A=    0.0000 R=    0.0000 C=    0.0000
 XYZ=   -4.2394    9.6534   -4.9100 Q=    0.4100 A=    0.0000 R=    0.0000 C=    0.0000
 XYZ=   -4.2905   10.8070   -6.0647 Q=    0.4100 A=    0.0000 R=    0.0000 C=    0.0000
 XYZ=   -3.2547   -4.7413    8.4093 Q=   -0.8200 A=    0.0000 R=    0.0000 C=    0.0000
 XYZ=   -3.9972   -5.3995    8.5336 Q=    0.4100 A=    0.0000 R=    0.0000 C=    0.0000
 XYZ=   -2.9754   -4.3818    9.2997 Q=    0.4100 A=    0.0000 R=    0.0000 C=    0.0000
 XYZ=   -8.1479   -5.8591    1.7243 Q=   -0.8200 A=    0.0000 R=    0.0000 C=    0.0000
 XYZ=   -8.8634   -5.8945    1.0265 Q=    0.4100 A=    0.0000 R=    0.0000 C=    0.0000
 XYZ=   -7.4301   -5.2263    1.4337 Q=    0.4100 A=    0.0000 R=    0.0000 C=    0.0000
 XYZ=   -2.6994   -6.7076   -7.5287 Q=   -0.8200 A=    0.0000 R=    0.0000 C=    0.0000
 XYZ=   -2.9849   -7.1383   -8.3848 Q=    0.4100 A=    0.0000 R=    0.0000 C=    0.0000
 XYZ=   -3.3961   -6.8637   -6.8285 Q=    0.4100 A=    0.0000 R=    0.0000 C=    0.0000
 XYZ=    6.5841    3.5915   -7.0941 Q=   -0.8200 A=    0.0000 R=    0.0000 C=    0.0000
 XYZ=    7.2134    4.2028   -7.5739 Q=    0.4100 A=    0.0000 R=    0.0000 C=    0.0000
 XYZ=    7.1029    2.9857   -6.4910 Q=    0.4100 A=    0.0000 R=    0.0000 C=    0.0000
 XYZ=    1.8176   -2.6836  -10.6929 Q=   -0.8200 A=    0.0000 R=    0.0000 C=    0.0000
 XYZ=    2.6744   -2.4218  -10.2486 Q=    0.4100 A=    0.0000 R=    0.0000 C=    0.0000
 XYZ=    1.9220   -2.6143  -11.6851 Q=    0.4100 A=    0.0000 R=    0.0000 C=    0.0000
 XYZ=   -4.6820   10.8079   -0.0816 Q=   -0.8200 A=    0.0000 R=    0.0000 C=    0.0000
 XYZ=   -5.1322   11.5084   -0.6354 Q=    0.4100 A=    0.0000 R=    0.0000 C=    0.0000
 XYZ=   -5.3401   10.0908    0.1480 Q=    0.4100 A=    0.0000 R=    0.0000 C=    0.0000
 XYZ=   -2.9801    2.8596  -11.2346 Q=   -0.8200 A=    0.0000 R=    0.0000 C=    0.0000
 XYZ=   -2.9249    2.8128  -10.2372 Q=    0.4100 A=    0.0000 R=    0.0000 C=    0.0000
 XYZ=   -2.8676    1.9429  -11.6180 Q=    0.4100 A=    0.0000 R=    0.0000 C=    0.0000
 XYZ=   10.3824   -0.9761   -3.2825 Q=   -0.8200 A=    0.0000 R=    0.0000 C=    0.0000
 XYZ=    9.5520   -1.0379   -2.7287 Q=    0.4100 A=    0.0000 R=    0.0000 C=    0.0000
 XYZ=   11.1833   -0.9791   -2.6837 Q=    0.4100 A=    0.0000 R=    0.0000 C=    0.0000
 XYZ=   -5.3742    5.0855    8.4380 Q=   -0.8200 A=    0.0000 R=    0.0000 C=    0.0000
 XYZ=   -6.1443    5.7002    8.2676 Q=    0.4100 A=    0.0000 R=    0.0000 C=    0.0000
 XYZ=   -4.5617    5.4310    7.9685 Q=    0.4100 A=    0.0000 R=    0.0000 C=    0.0000
 XYZ=   -2.8303  -10.6736    2.6172 Q=   -0.8200 A=    0.0000 R=    0.0000 C=    0.0000
 XYZ=   -2.3813   -9.7833    2.6941 Q=    0.4100 A=    0.0000 R=    0.0000 C=    0.0000
 XYZ=   -2.9131  -10.9229    1.6523 Q=    0.4100 A=    0.0000 R=    0.0000 C=    0.0000
 XYZ=   -5.0389   -7.2925   -6.4080 Q=   -0.8200 A=    0.0000 R=    0.0000 C=    0.0000
 XYZ=   -5.2963   -6.3599   -6.1550 Q=    0.4100 A=    0.0000 R=    0.0000 C=    0.0000
 XYZ=   -5.3364   -7.9258   -5.6936 Q=    0.4100 A=    0.0000 R=    0.0000 C=    0.0000
 XYZ=    3.0689   -7.0632   -8.5155 Q=   -0.8200 A=    0.0000 R=    0.0000 C=    0.0000
 XYZ=    3.5403   -6.3959   -7.9389 Q=    0.4100 A=    0.0000 R=    0.0000 C=    0.0000
 XYZ=    3.4973   -7.9601   -8.4058 Q=    0.4100 A=    0.0000 R=    0.0000 C=    0.0000
 XYZ=    7.7023    5.1396   -2.2491 Q=   -0.8200 A=    0.0000 R=    0.0000 C=    0.0000
 XYZ=    8.2548    4.3858   -1.8933 Q=    0.4100 A=    0.0000 R=    0.0000 C=    0.0000
 XYZ=    8.0606    6.0072   -1.9041 Q=    0.4100 A=    0.0000 R=    0.0000 C=    0.0000
 XYZ=   -8.0298    3.4048   -8.3190 Q=   -0.8200 A=    0.0000 R=    0.0000 C=    0.0000
 XYZ=   -8.1137    4.0925   -9.0402 Q=    0.4100 A=    0.0000 R=    0.0000 C=    0.0000
 XYZ=   -7.1756    3.5486   -7.8192 Q=    0.4100 A=    0.0000 R=    0.0000 C=    0.0000
 XYZ=   -8.4940    4.9759    4.9936 Q=   -0.8200 A=    0.0000 R=    0.0000 C=    0.0000
 XYZ=   -8.1659    4.1112    5.3740 Q=    0.4100 A=    0.0000 R=    0.0000 C=    0.0000
 XYZ=   -8.1158    5.7368    5.5209 Q=    0.4100 A=    0.0000 R=    0.0000 C=    0.0000
 XYZ=   10.1641   -1.0132    0.3119 Q=   -0.8200 A=    0.0000 R=    0.0000 C=    0.0000
 XYZ=   10.4949   -1.7655    0.8817 Q=    0.4100 A=    0.0000 R=    0.0000 C=    0.0000
 XYZ=    9.7732   -0.3007    0.8946 Q=    0.4100 A=    0.0000 R=    0.0000 C=    0.0000
 XYZ=   -1.3699   -3.4468  -11.0256 Q=   -0.8200 A=    0.0000 R=    0.0000 C=    0.0000
 XYZ=   -0.6505   -3.8364  -10.4504 Q=    0.4100 A=    0.0000 R=    0.0000 C=    0.0000
 XYZ=   -1.1803   -3.6572  -11.9847 Q=    0.4100 A=    0.0000 R=    0.0000 C=    0.0000
 XYZ=    1.5499    3.1911  -11.1625 Q=   -0.8200 A=    0.0000 R=    0.0000 C=    0.0000
 XYZ=    1.0052    3.6877  -10.4867 Q=    0.4100 A=    0.0000 R=    0.0000 C=    0.0000
 XYZ=    2.4758    3.5683  -11.1865 Q=    0.4100 A=    0.0000 R=    0.0000 C=    0.0000
 XYZ=   -5.8218   -8.2379   -4.2977 Q=   -0.8200 A=    0.0000 R=    0.0000 C=    0.0000
 XYZ=   -5.9799   -7.3540   -3.8575 Q=    0.4100 A=    0.0000 R=    0.0000 C=    0.0000
 XYZ=   -6.6826   -8.7445   -4.3467 Q=    0.4100 A=    0.0000 R=    0.0000 C=    0.0000
 XYZ=   -2.3516    5.3916   10.0470 Q=   -0.8200 A=    0.0000 R=    0.0000 C=    0.0000
 XYZ=   -2.5952    6.3566    9.9495 Q=    0.4100 A=    0.0000 R=    0.0000 C=    0.0000
 XYZ=   -1.9323    5.0664    9.1994 Q=    0.4100 A=    0.0000 R=    0.0000 C=    0.0000
 XYZ=    8.3535   -7.8023    0.1311 Q=   -0.8200 A=    0.0000 R=    0.0000 C=    0.0000
 XYZ=    8.0643   -7.3169    0.9561 Q=    0.4100 A=    0.0000 R=    0.0000 C=    0.0000
 XYZ=    8.8480   -8.6324    0.3890 Q=    0.4100 A=    0.0000 R=    0.0000 C=    0.0000
 XYZ=   -6.5677    3.1282    7.7127 Q=   -0.8200 A=    0.0000 R=    0.0000 C=    0.0000
 XYZ=   -6.8172    2.7139    8.5880 Q=    0.4100 A=    0.0000 R=    0.0000 C=    0.0000
 XYZ=   -6.0380    3.9604    7.8769 Q=    0.4100 A=    0.0000 R=    0.0000 C=    0.0000
 XYZ=    0.7405   11.4264    2.4908 Q=   -0.8200 A=    0.0000 R=    0.0000 C=    0.0000
 XYZ=    0.4252   10.6260    3.0005 Q=    0.4100 A=    0.0000 R=    0.0000 C=    0.0000
 XYZ=    0.7675   11.2105    1.5147 Q=    0.4100 A=    0.0000 R=    0.0000 C=    0.0000
 XYZ=    0.7387    9.6811    6.9449 Q=   -0.8200 A=    0.0000 R=    0.0000 C=    0.0000
 XYZ=    0.2967    8.9098    6.4869 Q=    0.4100 A=    0.0000 R=    0.0000 C=    0.0000
 XYZ=    1.5670    9.9351    6.4455 Q=    0.4100 A=    0.0000 R=    0.0000 C=    0.0000
 XYZ=   -2.7034  -10.5384    0.2805 Q=   -0.8200 A=    0.0000 R=    0.0000 C=    0.0000
 XYZ=   -1.7611  -10.8731    0.2810 Q=    0.4100 A=    0.0000 R=    0.0000 C=    0.0000
 XYZ=   -3.1635  -10.8390   -0.5550 Q=    0.4100 A=    0.0000 R=    0.0000 C=    0.0000
 XYZ=    5.7419    5.4573    6.4943 Q=   -0.8200 A=    0.0000 R=    0.0000 C=    0.0000
 XYZ=    6.3192    6.2564    6.6620 Q=    0.4100 A=    0.0000 R=    0.0000 C=    0.0000
 XYZ=    6.3191    4.6543    6.3461 Q=    0.4100 A=    0.0000 R=    0.0000 C=    0.0000
 XYZ=   -3.6057   11.1497    1.8363 Q=   -0.8200 A=    0.0000 R=    0.0000 C=    0.0000
 XYZ=   -4.3370   11.3850    2.4765 Q=    0.4100 A=    0.0000 R=    0.0000 C=    0.0000
 XYZ=   -3.9973   10.9727    0.9333 Q=    0.4100 A=    0.0000 R=    0.0000 C=    0.0000
 XYZ=   -9.2639    3.9587   -6.2393 Q=   -0.8200 A=    0.0000 R=    0.0000 C=    0.0000
 XYZ=   -8.9353    3.5264   -7.0790 Q=    0.4100 A=    0.0000 R=    0.0000 C=    0.0000
 XYZ=   -9.3272    3.2730   -5.5141 Q=    0.4100 A=    0.0000 R=    0.0000 C=    0.0000
 XYZ=    8.2969    2.8667   -5.3287 Q=   -0.8200 A=    0.0000 R=    0.0000 C=    0.0000
 XYZ=    8.5143    3.7988   -5.0390 Q=    0.4100 A=    0.0000 R=    0.0000 C=    0.0000
 XYZ=    8.9137    2.2240   -4.8741 Q=    0.4100 A=    0.0000 R=    0.0000 C=    0.0000
 XYZ=   -8.4087    0.8759    7.1566 Q=   -0.8200 A=    0.0000 R=    0.0000 C=    0.0000
 XYZ=   -7.8235    0.2065    6.6989 Q=    0.4100 A=    0.0000 R=    0.0000 C=    0.0000
 XYZ=   -8.3427    1.7547    6.6839 Q=    0.4100 A=    0.0000 R=    0.0000 C=    0.0000
 XYZ=   -2.7507    0.5875  -11.7064 Q=   -0.8200 A=    0.0000 R=    0.0000 C=    0.0000
 XYZ=   -2.3070   -0.1857  -11.2533 Q=    0.4100 A=    0.0000 R=    0.0000 C=    0.0000
 XYZ=   -3.7429    0.4662  -11.6773 Q=    0.4100 A=    0.0000 R=    0.0000 C=    0.0000
 XYZ=   -4.4736    9.6972    4.0857 Q=   -0.8200 A=    0.0000 R=    0.0000 C=    0.0000
 XYZ=   -3.8632    9.9377    4.8404 Q=    0.4100 A=    0.0000 R=    0.0000 C=    0.0000
 XYZ=   -4.8472   10.5316    3.6804 Q=    0.4100 A=    0.0000 R=    0.0000 C=    0.0000
 XYZ=    9.1113   -4.7735   -4.1072 Q=   -0.8200 A=    0.0000 R=    0.0000 C=    0.0000
 XYZ=    8.9358   -4.6476   -5.0837 Q=    0.4100 A=    0.0000 R=    0.0000 C=    0.0000
 XYZ=    9.6044   -5.6318   -3.9652 Q=    0.4100 A=    0.0000 R=    0.0000 C=    0.0000
 XYZ=    0.6647   -8.1260   -8.3392 Q=   -0.8200 A=    0.0000 R=    0.0000 C=    0.0000
 XYZ=    0.1309   -7.2826   -8.4012 Q=    0.4100 A=    0.0000 R=    0.0000 C=    0.0000
 XYZ=    1.6336   -7.9005   -8.2373 Q=    0.4100 A=    0.0000 R=    0.0000 C=    0.0000
 XYZ=    7.5316    7.7013    0.6692 Q=   -0.8200 A=    0.0000 R=    0.0000 C=    0.0000
 XYZ=    7.6965    8.6167    1.0364 Q=    0.4100 A=    0.0000 R=    0.0000 C=    0.0000
 XYZ=    7.2825    7.0830    1.4147 Q=    0.4100 A=    0.0000 R=    0.0000 C=    0.0000
 XYZ=    7.0415   -3.8375   -7.4820 Q=   -0.8200 A=    0.0000 R=    0.0000 C=    0.0000
 XYZ=    7.8752   -4.1610   -7.0342 Q=    0.4100 A=    0.0000 R=    0.0000 C=    0.0000
 XYZ=    6.6510   -4.5756   -8.0324 Q=    0.4100 A=    0.0000 R=    0.0000 C=    0.0000
 XYZ=   -0.6549    6.0417  -10.7358 Q=   -0.8200 A=    0.0000 R=    0.0000 C=    0.0000
 XYZ=   -1.1929    5.3873  -11.2673 Q=    0.4100 A=    0.0000 R=    0.0000 C=    0.0000
 XYZ=   -0.0139    5.5473  -10.1488 Q=    0.4100 A=    0.0000 R=    0.0000 C=    0.0000
 XYZ=    7.2377    3.6428    6.5609 Q=   -0.8200 A=    0.0000 R=    0.0000 C=    0.0000
 XYZ=    7.9374    3.6081    5.8473 Q=    0.4100 A=    0.0000 R=    0.0000 C=    0.0000
 XYZ=    7.6778    3.7127    7.4561 Q=    0.4100 A=    0.0000 R=    0.0000 C=    0.0000
 XYZ=   -0.6244  -11.5146    0.1427 Q=   -0.8200 A=    0.0000 R=    0.0000 C=    0.0000
 XYZ=   -0.9702  -12.4386   -0.0209 Q=    0.4100 A=    0.0000 R=    0.0000 C=    0.0000
 XYZ=    0.3472  -11.4763   -0.0911 Q=    0.4100 A=    0.0000 R=    0.0000 C=    0.0000
 XYZ=    9.0588   -0.8851   -5.5160 Q=   -0.8200 A=    0.0000 R=    0.0000 C=    0.0000
 XYZ=    9.6300   -1.1653   -4.7444 Q=    0.4100 A=    0.0000 R=    0.0000 C=    0.0000
 XYZ=    8.7388   -1.6963   -6.0055 Q=    0.4100 A=    0.0000 R=    0.0000 C=    0.0000
 XYZ=   10.8419   -3.2886    1.4886 Q=   -0.8200 A=    0.0000 R=    0.0000 C=    0.0000
 XYZ=    9.9941   -3.8111    1.5800 Q=    0.4100 A=    0.0000 R=    0.0000 C=    0.0000
 XYZ=   11.4549   -3.7567    0.8521 Q=    0.4100 A=    0.0000 R=    0.0000 C=    0.0000
 XYZ=    8.0270    7.2960   -1.5843 Q=   -0.8200 A=    0.0000 R=    0.0000 C=    0.0000
 XYZ=    7.1716    7.4407   -2.0816 Q=    0.4100 A=    0.0000 R=    0.0000 C=    0.0000
 XYZ=    7.8677    7.4178   -0.6046 Q=    0.4100 A=    0.0000 R=    0.0000 C=    0.0000
 XYZ=    8.4999    5.3299   -4.5651 Q=   -0.8200 A=    0.0000 R=    0.0000 C=    0.0000
 XYZ=    7.9806    5.1322   -3.7336 Q=    0.4100 A=    0.0000 R=    0.0000 C=    0.0000
 XYZ=    9.4783    5.2522   -4.3733 Q=    0.4100 A=    0.0000 R=    0.0000 C=    0.0000
 XYZ=    7.5091   -2.0055   -8.7821 Q=   -0.8200 A=    0.0000 R=    0.0000 C=    0.0000
 XYZ=    7.1941   -1.1872   -8.3013 Q=    0.4100 A=    0.0000 R=    0.0000 C=    0.0000
 XYZ=    7.3998   -2.8033   -8.1891 Q=    0.4100 A=    0.0000 R=    0.0000 C=    0.0000
 XYZ=   -5.4291   -9.6176   -2.0554 Q=   -0.8200 A=    0.0000 R=    0.0000 C=    0.0000
 XYZ=   -6.3229  -10.0543   -2.1576 Q=    0.4100 A=    0.0000 R=    0.0000 C=    0.0000
 XYZ=   -5.1653   -9.1918   -2.9210 Q=    0.4100 A=    0.0000 R=    0.0000 C=    0.0000
 XYZ=   -5.4527    5.0129   -9.3134 Q=   -0.8200 A=    0.0000 R=    0.0000 C=    0.0000
 XYZ=   -6.0193    5.7184   -9.7392 Q=    0.4100 A=    0.0000 R=    0.0000 C=    0.0000
 XYZ=   -5.2509    4.2983   -9.9833 Q=    0.4100 A=    0.0000 R=    0.0000 C=    0.0000
 XYZ=   -4.5497   -7.8151    6.4157 Q=   -0.8200 A=    0.0000 R=    0.0000 C=    0.0000
 XYZ=   -5.1375   -7.4672    5.6853 Q=    0.4100 A=    0.0000 R=    0.0000 C=    0.0000
 XYZ=   -4.6332   -7.2263    7.2197 Q=    0.4100 A=    0.0000 R=    0.0000 C=    0.0000
 XYZ=   -3.3810    7.4057    9.2415 Q=   -0.8200 A=    0.0000 R=    0.0000 C=    0.0000
 XYZ=   -3.4017    6.9559    8.3486 Q=    0.4100 A=    0.0000 R=    0.0000 C=    0.0000
 XYZ=   -4.3164    7.5419    9.5678 Q=    0.4100 A=    0.0000 R=    0.0000 C=    0.0000
 XYZ=   -1.5113  -11.1123   -5.1137 Q=   -0.8200 A=    0.0000 R=    0.0000 C=    0.0000
 XYZ=   -1.7727  -10.4314   -4.4295 Q=    0.4100 A=    0.0000 R=    0.0000 C=    0.0000
 XYZ=   -1.3493  -10.6588   -5.9902 Q=    0.4100 A=    0.0000 R=    0.0000 C=    0.0000
 XYZ=    3.8683   -0.8949  -11.5878 Q=   -0.8200 A=    0.0000 R=    0.0000 C=    0.0000
 XYZ=    3.4853   -0.0725  -11.1671 Q=    0.4100 A=    0.0000 R=    0.0000 C=    0.0000
 XYZ=    4.0245   -1.5876  -10.8837 Q=    0.4100 A=    0.0000 R=    0.0000 C=    0.0000
 XYZ=   -0.4713    0.4409  -12.7136 Q=   -0.8200 A=    0.0000 R=    0.0000 C=    0.0000
 XYZ=    0.0355    0.2802  -11.8667 Q=    0.4100 A=    0.0000 R=    0.0000 C=    0.0000
 XYZ=   -1.4443    0.5417  -12.5058 Q=    0.4100 A=    0.0000 R=    0.0000 C=    0.0000
 XYZ=    0.0795   -1.4255   11.8438 Q=   -0.8200 A=    0.0000 R=    0.0000 C=    0.0000
 XYZ=   -0.2081   -1.9303   11.0298 Q=    0.4100 A=    0.0000 R=    0.0000 C=    0.0000
 XYZ=   -0.7119   -0.9673   12.2487 Q=    0.4100 A=    0.0000 R=    0.0000 C=    0.0000
 XYZ=   -6.6782    8.9165    4.8410 Q=   -0.8200 A=    0.0000 R=    0.0000 C=    0.0000
 XYZ=   -7.1012    9.7294    5.2410 Q=    0.4100 A=    0.0000 R=    0.0000 C=    0.0000
 XYZ=   -5.6872    9.0435    4.7977 Q=    0.4100 A=    0.0000 R=    0.0000 C=    0.0000
 XYZ=   -7.1405   -2.1417   -8.7091 Q=   -0.8200 A=    0.0000 R=    0.0000 C=    0.0000
 XYZ=   -7.9544   -1.6083   -8.9392 Q=    0.4100 A=    0.0000 R=    0.0000 C=    0.0000
 XYZ=   -7.0423   -2.8965   -9.3578 Q=    0.4100 A=    0.0000 R=    0.0000 C=    0.0000
 XYZ=    4.6550    5.9649    8.7554 Q=   -0.8200 A=    0.0000 R=    0.0000 C=    0.0000
 XYZ=    5.4239    6.4217    9.2026 Q=    0.4100 A=    0.0000 R=    0.0000 C=    0.0000
 XYZ=    4.9087    5.7258    7.8181 Q=    0.4100 A=    0.0000 R=    0.0000 C=    0.0000
 XYZ=   -7.2834    6.8334    5.8780 Q=   -0.8200 A=    0.0000 R=    0.0000 C=    0.0000
 XYZ=   -7.1156    7.7314    5.4711 Q=    0.4100 A=    0.0000 R=    0.0000 C=    0.0000
 XYZ=   -7.1499    6.8857    6.8677 Q=    0.4100 A=    0.0000 R=    0.0000 C=    0.0000
 XYZ=   -0.6157   12.8937   -0.7369 Q=   -0.8200 A=    0.0000 R=    0.0000 C=    0.0000
 XYZ=    0.0019   12.1153   -0.6241 Q=    0.4100 A=    0.0000 R=    0.0000 C=    0.0000
 XYZ=   -1.3305   12.8559   -0.0386 Q=    0.4100 A=    0.0000 R=    0.0000 C=    0.0000
 XYZ=    9.5382    1.3475   -4.2292 Q=   -0.8200 A=    0.0000 R=    0.0000 C=    0.0000
 XYZ=   10.0524    1.9874   -3.6580 Q=    0.4100 A=    0.0000 R=    0.0000 C=    0.0000
 XYZ=   10.0279    0.4769   -4.2781 Q=    0.4100 A=    0.0000 R=    0.0000 C=    0.0000
 XYZ=   -1.1125   -9.7319   -6.9463 Q=   -0.8200 A=    0.0000 R=    0.0000 C=    0.0000
 XYZ=   -0.4198   -9.0875   -7.2700 Q=    0.4100 A=    0.0000 R=    0.0000 C=    0.0000
 XYZ=   -1.7741   -9.9045   -7.6761 Q=    0.4100 A=    0.0000 R=    0.0000 C=    0.0000
 XYZ=   10.9213    2.0483    0.8613 Q=   -0.8200 A=    0.0000 R=    0.0000 C=    0.0000
 XYZ=   10.2054    1.4802    1.2672 Q=    0.4100 A=    0.0000 R=    0.0000 C=    0.0000
 XYZ=   10.5204    2.9015    0.5274 Q=    0.4100 A=    0.0000 R=    0.0000 C=    0.0000
 XYZ=   10.4895   -4.5484   -1.4034 Q=   -0.8200 A=    0.0000 R=    0.0000 C=    0.0000
 XYZ=   10.3955   -3.9099   -2.1673 Q=    0.4100 A=    0.0000 R=    0.0000 C=    0.0000
 XYZ=   10.2151   -5.4637   -1.6983 Q=    0.4100 A=    0.0000 R=    0.0000 C=    0.0000
 XYZ=  -11.5621   -0.6273   -2.3546 Q=   -0.8200 A=    0.0000 R=    0.0000 C=    0.0000
 XYZ=  -11.8592    0.3173   -2.4941 Q=    0.4100 A=    0.0000 R=    0.0000 C=    0.0000
 XYZ=  -10.6281   -0.6336   -1.9975 Q=    0.4100 A=    0.0000 R=    0.0000 C=    0.0000
 XYZ=   -4.9377   -0.0569  -10.9312 Q=   -0.8200 A=    0.0000 R=    0.0000 C=    0.0000
 XYZ=   -5.7535    0.5122  -10.8279 Q=    0.4100 A=    0.0000 R=    0.0000 C=    0.0000
 XYZ=   -5.1887   -0.9246  -11.3604 Q=    0.4100 A=    0.0000 R=    0.0000 C=    0.0000
 XYZ=   -0.8086   -8.0509    9.4926 Q=   -0.8200 A=    0.0000 R=    0.0000 C=    0.0000
 XYZ=   -0.9564   -7.2357    8.9325 Q=    0.4100 A=    0.0000 R=    0.0000 C=    0.0000
 XYZ=   -0.1158   -8.6297    9.0624 Q=    0.4100 A=    0.0000 R=    0.0000 C=    0.0000
 XYZ=   -1.6345   -6.8968  -10.4518 Q=   -0.8200 A=    0.0000 R=    0.0000 C=    0.0000
 XYZ=   -2.0726   -6.0637  -10.7897 Q=    0.4100 A=    0.0000 R=    0.0000 C=    0.0000
 XYZ=   -1.3647   -6.7678   -9.4975 Q=    0.4100 A=    0.0000 R=    0.0000 C=    0.0000
 XYZ=    8.1112    7.2818    4.4780 Q=   -0.8200 A=    0.0000 R=    0.0000 C=    0.0000
 XYZ=    8.8240    6.7173    4.8943 Q=    0.4100 A=    0.0000 R=    0.0000 C=    0.0000
 XYZ=    7.5998    6.7365    3.8138 Q=    0.4100 A=    0.0000 R=    0.0000 C=    0.0000
 XYZ=   -6.5467   -8.8906    3.1190 Q=   -0.8200 A=    0.0000 R=    0.0000 C=    0.0000
 XYZ=   -6.1733   -8.1537    3.6827 Q=    0.4100 A=    0.0000 R=    0.0000 C=    0.0000
 XYZ=   -5.9602   -9.6971    3.1935 Q=    0.4100 A=    0.0000 R=    0.0000 C=    0.0000
 XYZ=    1.8954   -6.0021  -10.1697 Q=   -0.8200 A=    0.0000 R=    0.0000 C=    0.0000
 XYZ=    2.4512   -6.5331   -9.5301 Q=    0.4100 A=    0.0000 R=    0.0000 C=    0.0000
 XYZ=    2.3825   -5.1652  -10.4193 Q=    0.4100 A=    0.0000 R=    0.0000 C=    0.0000
 XYZ=  -10.8580    3.5153    2.1465 Q=   -0.8200 A=    0.0000 R=    0.0000 C=    0.0000
 XYZ=  -11.8117    3.6584    1.8817 Q=    0.4100 A=    0.0000 R=    0.0000 C=    0.0000
 XYZ=  -10.6751    2.5346    2.2163 Q=    0.4100 A=    0.0000 R=    0.0000 C=    0.0000
 XYZ=    4.7852    3.6210    9.3584 Q=   -0.8200 A=    0.0000 R=    0.0000 C=    0.0000
 XYZ=    5.3517    3.3920   10.1500 Q=    0.4100 A=    0.0000 R=    0.0000 C=    0.0000
 XYZ=    4.8088    4.6091    9.2063 Q=    0.4100 A=    0.0000 R=    0.0000 C=    0.0000
 XYZ=   -7.4023   -8.1151    1.2089 Q=   -0.8200 A=    0.0000 R=    0.0000 C=    0.0000
 XYZ=   -7.7209   -7.2309    1.5506 Q=    0.4100 A=    0.0000 R=    0.0000 C=    0.0000
 XYZ=   -6.9015   -8.5910    1.9319 Q=    0.4100 A=    0.0000 R=    0.0000 C=    0.0000
 XYZ=    1.3446    5.2454   10.5381 Q=   -0.8200 A=    0.0000 R=    0.0000 C=    0.0000
 XYZ=    0.5373    5.0444   11.0930 Q=    0.4100 A=    0.0000 R=    0.0000 C=    0.0000
 XYZ=    1.7470    4.3896   10.2131 Q=    0.4100 A=    0.0000 R=    0.0000 C=    0.0000
 XYZ=   10.2418   -7.1951   -1.4490 Q=   -0.8200 A=    0.0000 R=    0.0000 C=    0.0000
 XYZ=    9.3094   -7.3255   -1.1119 Q=    0.4100 A=    0.0000 R=    0.0000 C=    0.0000
 XYZ=   10.8691   -7.7723   -0.9260 Q=    0.4100 A=    0.0000 R=    0.0000 C=    0.0000
 XYZ=    2.0774   -5.1237   10.3543 Q=   -0.8200 A=    0.0000 R=    0.0000 C=    0.0000
 XYZ=    3.0311   -4.9459   10.5970 Q=    0.4100 A=    0.0000 R=    0.0000 C=    0.0000
 XYZ=    1.5126   -5.0943   11.1790 Q=    0.4100 A=    0.0000 R=    0.0000 C=    0.0000
 XYZ=   -7.9436   -5.3255   -6.1369 Q=   -0.8200 A=    0.0000 R=    0.0000 C=    0.0000
 XYZ=   -8.6082   -4.6068   -5.9327 Q=    0.4100 A=    0.0000 R=    0.0000 C=    0.0000
 XYZ=   -8.4082   -6.2106   -6.1662 Q=    0.4100 A=    0.0000 R=    0.0000 C=    0.0000
 XYZ=   -2.5293   -4.0728   10.5369 Q=   -0.8200 A=    0.0000 R=    0.0000 C=    0.0000
 XYZ=   -2.3683   -4.9333   11.0203 Q=    0.4100 A=    0.0000 R=    0.0000 C=    0.0000
 XYZ=   -2.9148   -3.4018   11.1702 Q=    0.4100 A=    0.0000 R=    0.0000 C=    0.0000
 XYZ=   -5.2679    3.2766  -10.8320 Q=   -0.8200 A=    0.0000 R=    0.0000 C=    0.0000
 XYZ=   -5.8210    2.4435  -10.8436 Q=    0.4100 A=    0.0000 R=    0.0000 C=    0.0000
 XYZ=   -4.3043    3.0386  -10.9542 Q=    0.4100 A=    0.0000 R=    0.0000 C=    0.0000
 XYZ=   -3.3224   11.5606   -6.6630 Q=   -0.8200 A=    0.0000 R=    0.0000 C=    0.0000
 XYZ=   -2.5666   11.1244   -6.1746 Q=    0.4100 A=    0.0000 R=    0.0000 C=    0.0000
 XYZ=   -3.2746   12.5512   -6.5349 Q=    0.4100 A=    0.0000 R=    0.0000 C=    0.0000
 XYZ=   -3.1054   -5.1191  -11.3732 Q=   -0.8200 A=    0.0000 R=    0.0000 C=    0.0000
 XYZ=   -3.3107   -5.1321  -12.3518 Q=    0.4100 A=    0.0000 R=    0.0000 C=    0.0000
 XYZ=   -2.6207   -4.2745  -11.1455 Q=    0.4100 A=    0.0000 R=    0.0000 C=    0.0000
 XYZ=   -2.1462    7.6394  -10.1159 Q=   -0.8200 A=    0.0000 R=    0.0000 C=    0.0000
 XYZ=   -1.7536    8.5503  -10.2429 Q=    0.4100 A=    0.0000 R=    0.0000 C=    0.0000
 XYZ=   -1.4588    6.9468  -10.3350 Q=    0.4100 A=    0.0000 R=    0.0000 C=    0.0000
 XYZ=    7.0267    6.7617   -5.9600 Q=   -0.8200 A=    0.0000 R=    0.0000 C=    0.0000
 XYZ=    7.7710    6.3403   -5.4418 Q=    0.4100 A=    0.0000 R=    0.0000 C=    0.0000
 XYZ=    7.2853    6.8237   -6.9241 Q=    0.4100 A=    0.0000 R=    0.0000 C=    0.0000
 XYZ=   -7.1569   -5.5732    7.8379 Q=   -0.8200 A=    0.0000 R=    0.0000 C=    0.0000
 XYZ=   -7.0127   -5.4851    6.8522 Q=    0.4100 A=    0.0000 R=    0.0000 C=    0.0000
 XYZ=   -7.0205   -4.6843    8.2754 Q=    0.4100 A=    0.0000 R=    0.0000 C=    0.0000
 XYZ=   -4.4471    4.4786   10.5050 Q=   -0.8200 A=    0.0000 R=    0.0000 C=    0.0000
 XYZ=   -3.5226    4.8482   10.4117 Q=    0.4100 A=    0.0000 R=    0.0000 C=    0.0000
 XYZ=   -4.9493    4.6177    9.6515 Q=    0.4100 A=    0.0000 R=    0.0000 C=    0.0000
 XYZ=   -8.9780   -5.7505    4.0884 Q=   -0.8200 A=    0.0000 R=    0.0000 C=    0.0000
 XYZ=   -8.5997   -5.7182    3.1633 Q=    0.4100 A=    0.0000 R=    0.0000 C=    0.0000
 XYZ=   -9.3112   -6.6736    4.2802 Q=    0.4100 A=    0.0000 R=    0.0000 C=    0.0000
 XYZ=   -3.8084  -11.3951   -1.6353 Q=   -0.8200 A=    0.0000 R=    0.0000 C=    0.0000
 XYZ=   -3.4682  -11.7331   -2.5128 Q=    0.4100 A=    0.0000 R=    0.0000 C=    0.0000
 XYZ=   -4.5569  -10.7512   -1.7938 Q=    0.4100 A=    0.0000 R=    0.0000 C=    0.0000
 XYZ=   -2.3291   12.9939    0.9534 Q=   -0.8200 A=    0.0000 R=    0.0000 C=    0.0000
 XYZ=   -2.8337   12.2501    1.3918 Q=    0.4100 A=    0.0000 R=    0.0000 C=    0.0000
 XYZ=   -2.9403   13.7724    0.8105 Q=    0.4100 A=    0.0000 R=    0.0000 C=    0.0000
 XYZ=    1.6907    2.2639   12.1011 Q=   -0.8200 A=    0.0000 R=    0.0000 C=    0.0000
 XYZ=    1.9163    2.4441   11.1437 Q=    0.4100 A=    0.0000 R=    0.0000 C=    0.0000
 XYZ=    1.8582    1.2998   12.3072 Q=    0.4100 A=    0.0000 R=    0.0000 C=    0.0000
 XYZ=  -10.7934    4.3552    4.3837 Q=   -0.8200 A=    0.0000 R=    0.0000 C=    0.0000
 XYZ=  -10.8068    4.1538    3.4043 Q=    0.4100 A=    0.0000 R=    0.0000 C=    0.0000
 XYZ=   -9.8772    4.6548    4.6498 Q=    0.4100 A=    0.0000 R=    0.0000 C=    0.0000
 XYZ=   11.9581   -0.6959   -1.2849 Q=   -0.8200 A=    0.0000 R=    0.0000 C=    0.0000
 XYZ=   12.8236   -0.9035   -0.8288 Q=    0.4100 A=    0.0000 R=    0.0000 C=    0.0000
 XYZ=   11.2057   -0.7970   -0.6340 Q=    0.4100 A=    0.0000 R=    0.0000 C=    0.0000
 XYZ=    9.6900   -8.1089    2.9293 Q=   -0.8200 A=    0.0000 R=    0.0000 C=    0.0000
 XYZ=    8.8734   -7.5395    2.8337 Q=    0.4100 A=    0.0000 R=    0.0000 C=    0.0000
 XYZ=    9.5699   -8.7375    3.6977 Q=    0.4100 A=    0.0000 R=    0.0000 C=    0.0000
 XYZ=   10.6357    2.8300   -2.8705 Q=   -0.8200 A=    0.0000 R=    0.0000 C=    0.0000
 XYZ=    9.9129    3.2313   -2.3079 Q=    0.4100 A=    0.0000 R=    0.0000 C=    0.0000
 XYZ=   11.3206    2.4042   -2.2792 Q=    0.4100 A=    0.0000 R=    0.0000 C=    0.0000
 XYZ=   -3.3482   10.2150    6.1065 Q=   -0.8200 A=    0.0000 R=    0.0000 C=    0.0000
 XYZ=   -2.4979   10.4481    6.5784 Q=    0.4100 A=    0.0000 R=    0.0000 C=    0.0000
 XYZ=   -4.1150   10.6746    6.5546 Q=    0.4100 A=    0.0000 R=    0.0000 C=    0.0000
[...]
    40  H    0.000000   0.000000   0.000000   0.000000   0.000000   0.000040
    41  H    0.000000   0.000000   0.000000   0.000000   0.000000   0.000000
    42  O    0.000000  -0.000003   0.000000   0.000000   0.000000   0.000000
    43  H    0.000000   0.000000   0.000000   0.000000   0.000000   0.000000
    44  H    0.000000   0.000000   0.000000   0.000000   0.000000   0.000000
    45  O    0.000107  -0.000365   0.000000   0.000000   0.000000   0.000000
    46  H    0.000006   0.000198   0.000000   0.000000   0.000000   0.000000
    47  H   -0.000002  -0.000031   0.000000   0.000000   0.000000   0.000000
    48  O    0.000000   0.000000   0.000401   0.000069  -0.000368  -0.000012
    49  H    0.000000   0.000000   0.000020  -0.000015   0.000063   0.000001
    50  H    0.000000   0.000000  -0.000004  -0.000004   0.000005   0.000000
              31         32         33         34         35         36
     1  C   -0.000042   0.000112  -0.000107   0.000004   0.000026   0.000490
     2  H    0.000000   0.000000   0.000000   0.000000   0.000000   0.000000
     3  H    0.000000   0.000000   0.000000   0.000000   0.000000  -0.000002
     4  C   -0.000029  -0.000139  -0.000438  -0.000054  -0.000088  -0.000288
     5  H    0.000000   0.000001   0.000000   0.000000   0.000000   0.000000
     6  C    0.000061   0.000049   0.000276  -0.000239  -0.000330  -0.000050
     7  H    0.000000   0.000000   0.000066   0.000000  -0.000002   0.000000
     8  O    0.000000   0.000000  -0.003956   0.000111   0.000410   0.000000
     9  O    0.000000   0.000000  -0.092166   0.001692   0.005084   0.000000
    10  H    0.000000   0.000000   0.001413  -0.000115  -0.000493   0.000000
    11  H    0.000000   0.000000   0.038191  -0.000614  -0.001035   0.000000
    12  O    0.000000   0.000000  -0.001572   0.000039   0.000059   0.000000
    13  H    0.000000   0.000000   0.000018  -0.000001  -0.000058   0.000000
    14  H    0.000000   0.000000   0.000001   0.000000  -0.000024   0.000000
    15  O    0.000002  -0.000025   0.000000   0.000000   0.000000  -0.032017
    16  H    0.000000   0.000000   0.000000   0.000000   0.000000   0.007251
    17  H    0.000002  -0.000006   0.000000   0.000000   0.000000  -0.001587
    18  O    0.001375   0.002300   0.000000   0.000000   0.000000  -0.106583
    19  H   -0.003086   0.000374   0.000000   0.000000   0.000000   0.003452
    20  H   -0.000008  -0.000012   0.000000   0.000000   0.000000   0.000309
    21  O    0.000000   0.000000   0.000007   0.000000   0.000002  -0.000019
    22  H    0.000000   0.000000   0.000000   0.000000   0.000000  -0.000003
    23  H    0.000000   0.000000  -0.000002   0.000000   0.000000   0.000000
    24  O    0.000000   0.000000  -0.063925   0.000140   0.016332   0.000000
    25  H    0.000000   0.000000  -0.002560   0.000038  -0.001443   0.000000
    26  H    0.000000   0.000000   0.000927  -0.000015   0.001903   0.000000
    27  O    0.000000   0.000000   0.000000   0.000000   0.000000  -0.001158
    28  H    0.000000   0.000000   0.000000   0.000000   0.000000   0.000053
    29  H    0.000000   0.000000   0.000000   0.000000   0.000000   0.000280
    30  O    0.211620   0.223912   0.000000   0.000000   0.000000  -0.001930
    31  H    0.182361  -0.005394   0.000000   0.000000   0.000000  -0.000139
    32  H   -0.005394   0.222652   0.000000   0.000000   0.000000   0.000012
    33  O    0.000000   0.000000   8.991153   0.214336   0.145678   0.000000
    34  H    0.000000   0.000000   0.214336   0.156867  -0.003861   0.000000
    35  H    0.000000   0.000000   0.145678  -0.003861   0.218613   0.000000
    36  O   -0.000139   0.000012   0.000000   0.000000   0.000000   9.064428
    37  H   -0.000018  -0.000014   0.000000   0.000000   0.000000   0.161641
    38  H    0.000001   0.000000   0.000000   0.000000   0.000000   0.194223
    39  O    0.000000   0.000001   0.000036   0.000000   0.000000   0.000000
    40  H    0.000000  -0.000004   0.000002   0.000000   0.000000   0.000000
    41  H    0.000000   0.000000   0.000039   0.000000   0.000000   0.000000
    42  O    0.000000   0.000000  -0.002251  -0.000002   0.000024   0.000000
    43  H    0.000000   0.000000  -0.000012   0.000000   0.000000   0.000000
    44  H    0.000000   0.000000   0.000851  -0.000011   0.000010   0.000000
    45  O    0.000000   0.000000   0.000033   0.000000   0.000015   0.000000
    46  H    0.000000   0.000000   0.000004   0.000000  -0.000001   0.000000
    47  H    0.000000   0.000000   0.000000   0.000000   0.000000   0.000000
    48  O    0.000000   0.000000   0.000000   0.000000   0.000000  -0.005001
    49  H    0.000000   0.000000   0.000000   0.000000   0.000000   0.000285
    50  H    0.000000   0.000000   0.000000   0.000000   0.000000   0.000074
              37         38         39         40         41         42
     1  C   -0.000120  -0.000019   0.000881   0.000842  -0.000102   0.000293
     2  H    0.000000   0.000000   0.000000   0.000000   0.000000   0.000000
     3  H    0.000000   0.000000   0.000000   0.000000   0.000000   0.000000
     4  C    0.000199   0.000015  -0.006291  -0.001140   0.000164  -0.005981
     5  H    0.000000   0.000000  -0.000040  -0.000005   0.000000   0.000002
     6  C   -0.000024   0.000000   0.006223   0.002188   0.000345  -0.005614
     7  H    0.000000   0.000000   0.000040   0.000099   0.000062   0.000038
     8  O    0.000000   0.000000  -0.000078   0.000007   0.000008   0.000319
     9  O    0.000000   0.000000  -0.001234   0.000653   0.003439  -0.064612
    10  H    0.000000   0.000000   0.000202  -0.000034  -0.000092   0.003424
    11  H    0.000000   0.000000  -0.000004   0.000002   0.000028   0.002998
    12  O    0.000000   0.000000   0.000003   0.000000   0.000000   0.000393
    13  H    0.000000   0.000000   0.000000   0.000000   0.000000  -0.000050
    14  H    0.000000   0.000000   0.000000   0.000000   0.000000  -0.000014
    15  O   -0.001443   0.000126   0.000000   0.000000   0.000000   0.000000
    16  H   -0.000182  -0.000295   0.000000   0.000000   0.000000   0.000000
    17  H   -0.000043   0.000063   0.000000   0.000000   0.000000   0.000000
    18  O    0.021157   0.002004  -0.000006  -0.000007   0.000000   0.000000
    19  H    0.001305  -0.000136   0.000000   0.000000   0.000000   0.000000
    20  H   -0.001487  -0.000113   0.000000   0.000000   0.000000   0.000000
    21  O    0.000000   0.000000   0.000000   0.000000   0.000000   0.000000
    22  H    0.000000   0.000000   0.000000   0.000000   0.000000   0.000000
    23  H    0.000000   0.000000   0.000000   0.000000   0.000000   0.000000
    24  O    0.000000   0.000000  -0.000001   0.000000   0.000000  -0.000054
    25  H    0.000000   0.000000   0.000000   0.000000   0.000000   0.000000
    26  H    0.000000   0.000000   0.000000   0.000000   0.000000  -0.000003
    27  O   -0.000078   0.000058   0.000000   0.000000   0.000000   0.000000
    28  H   -0.000001  -0.000001   0.000000   0.000000   0.000000   0.000000
    29  H   -0.000057  -0.000017   0.000000   0.000000   0.000000   0.000000
    30  O    0.001399  -0.000026   0.000014   0.000040   0.000000   0.000000
    31  H   -0.000018   0.000001   0.000000   0.000000   0.000000   0.000000
    32  H   -0.000014   0.000000   0.000001  -0.000004   0.000000   0.000000
    33  O    0.000000   0.000000   0.000036   0.000002   0.000039  -0.002251
    34  H    0.000000   0.000000   0.000000   0.000000   0.000000  -0.000002
    35  H    0.000000   0.000000   0.000000   0.000000   0.000000   0.000024
    36  O    0.161641   0.194223   0.000000   0.000000   0.000000   0.000000
    37  H    0.216713  -0.004000   0.000000   0.000000   0.000000   0.000000
    38  H   -0.004000   0.171978   0.000000   0.000000   0.000000   0.000000
    39  O    0.000000   0.000000   8.850119   0.211002   0.128710  -0.074042
    40  H    0.000000   0.000000   0.211002   0.304094  -0.002530   0.001520
    41  H    0.000000   0.000000   0.128710  -0.002530   0.225628   0.051465
    42  O    0.000000   0.000000  -0.074042   0.001520   0.051465   8.947857
    43  H    0.000000   0.000000   0.001092  -0.000014   0.000085   0.199629
    44  H    0.000000   0.000000   0.004762  -0.000141  -0.000972   0.165478
    45  O    0.000000   0.000000   0.000000   0.000000   0.000000   0.000000
    46  H    0.000000   0.000000   0.000000   0.000000   0.000000   0.000000
    47  H    0.000000   0.000000   0.000000   0.000000   0.000000   0.000000
    48  O   -0.000073   0.000057   0.000000   0.000000   0.000000   0.000000
    49  H   -0.000003  -0.000001   0.000000   0.000000   0.000000   0.000000
    50  H   -0.000001   0.000000   0.000000   0.000000   0.000000   0.000000
              43         44         45         46         47         48
     1  C   -0.000025  -0.000095   0.000075   0.000026  -0.000002   0.000799
     2  H    0.000000   0.000000   0.000000   0.000000   0.000000   0.000001
     3  H    0.000000   0.000000   0.000000   0.000000   0.000000  -0.000044
     4  C    0.000099   0.000579  -0.000192   0.000076   0.000002  -0.000380
     5  H    0.000000   0.000000   0.000000   0.000000   0.000000   0.000000
     6  C    0.000016   0.000529  -0.000181   0.000520   0.000011   0.000020
     7  H   -0.000015  -0.000601   0.000000   0.000000   0.000000   0.000000
     8  O   -0.000036   0.000178  -0.000002   0.000014   0.000000   0.000000
     9  O   -0.001092   0.052984  -0.000003  -0.000006   0.000000   0.000000
    10  H    0.000005  -0.000147   0.000000   0.000001   0.000000   0.000000
    11  H   -0.000010  -0.000975   0.000000   0.000000   0.000000   0.000000
    12  O   -0.000015  -0.000031  -0.048069   0.018055   0.000412   0.000000
    13  H    0.000002   0.000008   0.002220   0.002808  -0.000003   0.000000
    14  H    0.000000   0.000000  -0.001449  -0.002546   0.000044   0.000000
    15  O    0.000000   0.000000   0.000000   0.000000   0.000000   0.008996
    16  H    0.000000   0.000000   0.000000   0.000000   0.000000  -0.000539
    17  H    0.000000   0.000000   0.000000   0.000000   0.000000  -0.000055
    18  O    0.000000   0.000000   0.000000   0.000000   0.000000   0.000668
    19  H    0.000000   0.000000   0.000000   0.000000   0.000000  -0.000015
    20  H    0.000000   0.000000   0.000000   0.000000   0.000000   0.000001
    21  O    0.000000   0.000000   0.000001   0.000000   0.000000  -0.000031
    22  H    0.000000   0.000000   0.000000   0.000000   0.000000   0.000000
    23  H    0.000000   0.000000   0.000000   0.000000   0.000000   0.000001
    24  O    0.000000   0.000000  -0.004226  -0.000152   0.000073   0.000000
    25  H    0.000000   0.000000   0.000107   0.000006  -0.000002   0.000000
    26  H    0.000000   0.000000  -0.000365   0.000198  -0.000031   0.000000
    27  O    0.000000   0.000000   0.000000   0.000000   0.000000   0.000401
    28  H    0.000000   0.000000   0.000000   0.000000   0.000000   0.000069
    29  H    0.000000   0.000000   0.000000   0.000000   0.000000  -0.000368
    30  O    0.000000   0.000000   0.000000   0.000000   0.000000  -0.000012
    31  H    0.000000   0.000000   0.000000   0.000000   0.000000   0.000000
    32  H    0.000000   0.000000   0.000000   0.000000   0.000000   0.000000
    33  O   -0.000012   0.000851   0.000033   0.000004   0.000000   0.000000
    34  H    0.000000  -0.000011   0.000000   0.000000   0.000000   0.000000
    35  H    0.000000   0.000010   0.000015  -0.000001   0.000000   0.000000
    36  O    0.000000   0.000000   0.000000   0.000000   0.000000  -0.005001
    37  H    0.000000   0.000000   0.000000   0.000000   0.000000  -0.000073
    38  H    0.000000   0.000000   0.000000   0.000000   0.000000   0.000057
    39  O    0.001092   0.004762   0.000000   0.000000   0.000000   0.000000
    40  H   -0.000014  -0.000141   0.000000   0.000000   0.000000   0.000000
    41  H    0.000085  -0.000972   0.000000   0.000000   0.000000   0.000000
    42  O    0.199629   0.165478   0.000000   0.000000   0.000000   0.000000
    43  H    0.140328  -0.002743   0.000000   0.000000   0.000000   0.000000
    44  H   -0.002743   0.192450   0.000000   0.000000   0.000000   0.000000
    45  O    0.000000   0.000000   8.870504   0.174640   0.203366   0.000000
    46  H    0.000000   0.000000   0.174640   0.212021  -0.003299   0.000000
    47  H    0.000000   0.000000   0.203366  -0.003299   0.192543   0.000000
    48  O    0.000000   0.000000   0.000000   0.000000   0.000000   8.671975
    49  H    0.000000   0.000000   0.000000   0.000000   0.000000   0.223292
    50  H    0.000000   0.000000   0.000000   0.000000   0.000000   0.210720
              49         50
     1  C    0.001492  -0.000050
     2  H    0.000000   0.000000
     3  H   -0.000006   0.000000
     4  C   -0.000644   0.000014
     5  H    0.000000   0.000000
     6  C    0.000034  -0.000002
     7  H    0.000000   0.000000
     8  O    0.000000   0.000000
     9  O    0.000000   0.000000
    10  H    0.000000   0.000000
    11  H    0.000000   0.000000
    12  O    0.000000   0.000000
    13  H    0.000000   0.000000
    14  H    0.000000   0.000000
    15  O    0.000962  -0.000060
    16  H   -0.000271   0.000038
    17  H    0.000004  -0.000001
    18  O    0.000034   0.000004
    19  H   -0.000001   0.000000
    20  H    0.000000   0.000000
    21  O   -0.000004   0.000001
    22  H    0.000001   0.000000
    23  H    0.000000   0.000000
    24  O    0.000000   0.000000
    25  H    0.000000   0.000000
    26  H    0.000000   0.000000
    27  O    0.000020  -0.000004
    28  H   -0.000015  -0.000004
    29  H    0.000063   0.000005
    30  O    0.000001   0.000000
    31  H    0.000000   0.000000
    32  H    0.000000   0.000000
    33  O    0.000000   0.000000
    34  H    0.000000   0.000000
    35  H    0.000000   0.000000
    36  O    0.000285   0.000074
    37  H   -0.000003  -0.000001
    38  H   -0.000001   0.000000
    39  O    0.000000   0.000000
    40  H    0.000000   0.000000
    41  H    0.000000   0.000000
    42  O    0.000000   0.000000
    43  H    0.000000   0.000000
    44  H    0.000000   0.000000
    45  O    0.000000   0.000000
    46  H    0.000000   0.000000
    47  H    0.000000   0.000000
    48  O    0.223292   0.210720
    49  H    0.288423  -0.010400
    50  H   -0.010400   0.186831
 Mulliken charges:
               1
     1  C   -0.400562
     2  H    0.242886
     3  H    0.231673
     4  C   -0.110619
     5  H    0.230791
     6  C    0.062401
     7  H    0.213197
     8  O   -0.446227
     9  O   -1.162289
    10  H    0.467457
    11  H    0.629607
    12  O   -1.293224
    13  H    0.617130
    14  H    0.674760
    15  O   -1.102785
    16  H    0.548152
    17  H    0.602356
    18  O   -1.221586
    19  H    0.614437
    20  H    0.629433
    21  O   -1.077494
    22  H    0.599583
    23  H    0.463814
    24  O   -1.283965
    25  H    0.662537
    26  H    0.629762
    27  O   -1.214715
    28  H    0.583824
    29  H    0.615323
    30  O   -1.150121
    31  H    0.613294
    32  H    0.556180
    33  O   -1.226041
    34  H    0.631686
    35  H    0.619180
    36  O   -1.283718
    37  H    0.605131
    38  H    0.636082
    39  O   -1.121391
    40  H    0.483424
    41  H    0.593724
    42  O   -1.220818
    43  H    0.662704
    44  H    0.587888
    45  O   -1.196473
    46  H    0.597635
    47  H    0.606884
    48  O   -1.110483
    49  H    0.496737
    50  H    0.612835
 Sum of Mulliken charges =   0.00000
 Mulliken charges with hydrogens summed into heavy atoms:
               1
     1  C    0.073997
     4  C    0.120172
     6  C    0.275597
     8  O   -0.446227
     9  O   -0.065224
    12  O   -0.001334
    15  O    0.047724
    18  O    0.022284
    21  O   -0.014096
    24  O    0.008334
    27  O   -0.015567
    30  O    0.019352
    33  O    0.024825
    36  O   -0.042505
    39  O   -0.044242
    42  O    0.029775
    45  O    0.008046
    48  O   -0.000912
 Electronic spatial extent (au):  <R**2>=          13952.9382
 Charge=              0.0000 electrons
 Dipole moment (field-independent basis, Debye):
    X=              5.0605    Y=              3.4858    Z=              0.9999  Tot=              6.2257
 Quadrupole moment (field-independent basis, Debye-Ang):
   XX=            -94.3637   YY=           -155.7653   ZZ=           -112.0828
   XY=             26.2566   XZ=             10.0983   YZ=              0.1531
 Traceless Quadrupole moment (field-independent basis, Debye-Ang):
   XX=             26.3736   YY=            -35.0280   ZZ=              8.6544
   XY=             26.2566   XZ=             10.0983   YZ=              0.1531
 Octapole moment (field-independent basis, Debye-Ang**2):
  XXX=           -216.5180  YYY=           -187.3296  ZZZ=             84.4506  XYY=            413.1047
  XXY=            113.8282  XXZ=            124.2990  XZZ=             58.1776  YZZ=             53.2406
  YYZ=             -3.7994  XYZ=            105.4316
 Hexadecapole moment (field-independent basis, Debye-Ang**3):
 XXXX=          -9602.7339 YYYY=          -5532.5817 ZZZZ=          -1321.0313 XXXY=            317.3995
 XXXZ=           1292.5855 YYYX=            290.3585 YYYZ=             56.1535 ZZZX=           -338.9979
 ZZZY=            -77.0188 XXYY=          -1401.0449 XXZZ=          -1867.2346 YYZZ=          -1011.9152
 XXYZ=           -238.8728 YYXZ=           -366.7561 ZZXY=            -96.6500
 N-N= 1.039781507965D+03 E-N=-6.046125491022D+03  KE= 1.248842293790D+03
 Leave Link  601 at Fri Sep 14 19:25:35 2018, MaxMem=    33554432 cpu:         8.4
 (Enter /usr/local/pacerepov1/gaussian/G09D01LINDA/g09/l9999.exe)

 Test job not archived.
 1\1\GINC-IW-K41-38-L\SP\RLC-wPBE TD-FC\6-31+G(d)\C3H32O15\ROOT\14-Sep-
 2018\0\\#p td=(nstates=15)/6-31+g(d) lc-wpbe charge\\Acroleina in Wate
 r\\0,1\C,0,0.485154,0.480443,-1.430142\H,0,1.461403,0.187773,-1.055732
 \H,0,0.429244,0.878853,-2.437062\C,0,-0.605127,0.346563,-0.658432\H,0,
 -1.591686,0.632893,-1.012412\C,0,-0.508516,-0.199107,0.712798\H,0,-1.4
 58487,-0.272107,1.272438\O,0,0.544883,-0.561317,1.236519\O,0,-0.791865
 ,-0.272877,3.650746\H,0,-0.461925,-0.040297,2.735836\H,0,-0.012385,-0.
 392767,4.265626\O,0,1.428415,-3.339257,2.077786\H,0,0.966445,-2.489887
 ,1.822456\H,0,0.777075,-3.950887,2.526826\O,0,0.215045,4.424203,-1.394
 464\H,0,0.371545,5.219063,-1.980734\H,0,-0.626015,4.557273,-0.870094\O
 ,0,-1.975155,5.185683,-0.603954\H,0,-2.768755,4.812903,-1.084854\H,0,-
 2.251355,5.492823,0.306756\O,0,3.325965,2.194863,0.347086\H,0,2.938215
 ,3.093553,0.142006\H,0,2.586095,1.538043,0.492656\O,0,2.534405,-2.0765
 37,4.008146\H,0,3.250815,-1.490657,3.629246\H,0,2.143715,-2.638977,3.2
 79396\O,0,2.531385,4.252693,-0.610324\H,0,3.147395,4.774623,-1.200334\
 H,0,1.585365,4.410623,-0.893444\O,0,-4.176415,4.059133,-1.488804\H,0,-
 4.754185,4.816953,-1.185634\H,0,-4.713305,3.215553,-1.502714\O,0,0.975
 635,-0.660577,5.245596\H,0,1.472005,0.051213,5.742586\H,0,1.628115,-1.
 301957,4.841956\O,0,-1.171195,6.562473,-2.318304\H,0,-1.562715,6.00311
 3,-1.587624\H,0,-1.108945,7.512873,-2.013534\O,0,-4.610755,0.495043,2.
 753526\H,0,-4.190475,1.195773,2.176996\H,0,-3.916085,0.094233,3.350876
 \O,0,-3.152505,-0.893787,4.231925\H,0,-2.976885,-1.866787,4.381786\H,0
 ,-2.284015,-0.413287,4.110046\O,0,2.949155,-5.142957,1.438996\H,0,2.29
 5625,-4.526727,1.878586\H,0,3.308085,-5.785837,2.115676\O,0,1.233525,4
 .892603,-4.591014\H,0,1.292535,4.041893,-4.068644\H,0,1.992885,4.93844
 3,-5.240104\\Version=EM64L-G09RevD.01\State=1-A\HF=-1759.2657916\RMSD=
 8.499e-09\PG=C01 [X(C3H32O15)]\\@


 ERWIN WITH HIS PSI CAN DO
 CALCULATIONS QUITE A FEW.
 BUT ONE THING HAS NOT BEEN SEEN
 JUST WHAT DOES PSI REALLY MEAN.
 -- WALTER HUCKEL, TRANS. BY FELIX BLOCH
 Job cpu time:       0 days  3 hours  2 minutes 41.2 seconds.
 File lengths (MBytes):  RWF=    792 Int=      0 D2E=      0 Chk=     96 Scr=      2
 Normal termination of Gaussian 09 at Fri Sep 14 19:25:38 2018.
