 Entering Gaussian System, Link 0=g09
 Input=Acroleina_water_15_89c.gjf
 Output=Acroleina_water_15_89c.log
 Initial command:
 /usr/local/pacerepov1/gaussian/G09D01LINDA/g09/l1.exe /nv/hp18/holiveira7/scratch/22412034/Gau-27231.inp -scrdir=/nv/hp18/holiveira7/scratch/22412034/
 Entering Link 1 = /usr/local/pacerepov1/gaussian/G09D01LINDA/g09/l1.exe PID=     27232.
  
 Copyright (c) 1988,1990,1992,1993,1995,1998,2003,2009,2013,
            Gaussian, Inc.  All Rights Reserved.
  
 This is part of the Gaussian(R) 09 program.  It is based on
 the Gaussian(R) 03 system (copyright 2003, Gaussian, Inc.),
 the Gaussian(R) 98 system (copyright 1998, Gaussian, Inc.),
 the Gaussian(R) 94 system (copyright 1995, Gaussian, Inc.),
 the Gaussian 92(TM) system (copyright 1992, Gaussian, Inc.),
 the Gaussian 90(TM) system (copyright 1990, Gaussian, Inc.),
 the Gaussian 88(TM) system (copyright 1988, Gaussian, Inc.),
 the Gaussian 86(TM) system (copyright 1986, Carnegie Mellon
 University), and the Gaussian 82(TM) system (copyright 1983,
 Carnegie Mellon University). Gaussian is a federally registered
 trademark of Gaussian, Inc.
  
 This software contains proprietary and confidential information,
 including trade secrets, belonging to Gaussian, Inc.
  
 This software is provided under written license and may be
 used, copied, transmitted, or stored only in accord with that
 written license.
  
 The following legend is applicable only to US Government
 contracts under FAR:
  
                    RESTRICTED RIGHTS LEGEND
  
 Use, reproduction and disclosure by the US Government is
 subject to restrictions as set forth in subparagraphs (a)
 and (c) of the Commercial Computer Software - Restricted
 Rights clause in FAR 52.227-19.
  
 Gaussian, Inc.
 340 Quinnipiac St., Bldg. 40, Wallingford CT 06492
  
  
 ---------------------------------------------------------------
 Warning -- This program may not be used in any manner that
 competes with the business of Gaussian, Inc. or will provide
 assistance to any competitor of Gaussian, Inc.  The licensee
 of this program is prohibited from giving any competitor of
 Gaussian, Inc. access to this program.  By using this program,
 the user acknowledges that Gaussian, Inc. is engaged in the
 business of creating and licensing software in the field of
 computational chemistry and represents and warrants to the
 licensee that it is not a competitor of Gaussian, Inc. and that
 it will not use this program in any manner prohibited above.
 ---------------------------------------------------------------
  

 Cite this work as:
 Gaussian 09, Revision D.01,
 M. J. Frisch, G. W. Trucks, H. B. Schlegel, G. E. Scuseria, 
 M. A. Robb, J. R. Cheeseman, G. Scalmani, V. Barone, B. Mennucci, 
 G. A. Petersson, H. Nakatsuji, M. Caricato, X. Li, H. P. Hratchian, 
 A. F. Izmaylov, J. Bloino, G. Zheng, J. L. Sonnenberg, M. Hada, 
 M. Ehara, K. Toyota, R. Fukuda, J. Hasegawa, M. Ishida, T. Nakajima, 
 Y. Honda, O. Kitao, H. Nakai, T. Vreven, J. A. Montgomery, Jr., 
 J. E. Peralta, F. Ogliaro, M. Bearpark, J. J. Heyd, E. Brothers, 
 K. N. Kudin, V. N. Staroverov, T. Keith, R. Kobayashi, J. Normand, 
 K. Raghavachari, A. Rendell, J. C. Burant, S. S. Iyengar, J. Tomasi, 
 M. Cossi, N. Rega, J. M. Millam, M. Klene, J. E. Knox, J. B. Cross, 
 V. Bakken, C. Adamo, J. Jaramillo, R. Gomperts, R. E. Stratmann, 
 O. Yazyev, A. J. Austin, R. Cammi, C. Pomelli, J. W. Ochterski, 
 R. L. Martin, K. Morokuma, V. G. Zakrzewski, G. A. Voth, 
 P. Salvador, J. J. Dannenberg, S. Dapprich, A. D. Daniels, 
 O. Farkas, J. B. Foresman, J. V. Ortiz, J. Cioslowski, 
 and D. J. Fox, Gaussian, Inc., Wallingford CT, 2013.
 
 ******************************************
 Gaussian 09:  EM64L-G09RevD.01 24-Apr-2013
                14-Sep-2018 
 ******************************************
 %chk=Acrolina_Din_89.chk
 %nprocshared=10
 Will use up to   10 processors via shared memory.
 -------------------------------------------
 #p td=(nstates=15)/6-31+g(d) lc-wpbe charge
 -------------------------------------------
 1/18=10,28=-2,38=1,125=101/1;
 2/12=2,17=6,18=5,40=1/2;
 3/5=1,6=6,7=11,11=9,16=1,25=1,30=1,74=-41/1,2,8,3;
 4//1;
 5/5=2,38=5/2;
 8/6=1,10=2,108=15/1;
 9/41=15,42=1,70=2/14;
 6/7=2,8=2,9=2,10=2/1;
 99/5=1,9=1/99;
 Leave Link    1 at Fri Sep 14 17:47:32 2018, MaxMem=           0 cpu:        13.2
 (Enter /usr/local/pacerepov1/gaussian/G09D01LINDA/g09/l101.exe)
 ------------------
 Acroleina in Water
 ------------------
 Symbolic Z-matrix:
 Charge =  0 Multiplicity = 1
 C                     0.48515   0.48044  -1.43014 
 H                     1.4614    0.18777  -1.05573 
 H                     0.42924   0.87885  -2.43706 
 C                    -0.60513   0.34656  -0.65843 
 H                    -1.59169   0.63289  -1.01241 
 C                    -0.50852  -0.19911   0.7128 
 H                    -1.45849  -0.27211   1.27244 
 O                     0.54488  -0.56132   1.23652 
 O                     1.66355  -2.76503   2.22045 
 H                     1.23921  -2.13273   1.57224 
 H                     1.08716  -3.57601   2.32083 
 O                    -0.54751  -0.01658   3.62221 
 H                    -0.19967  -0.15005   2.6942 
 H                     0.17756  -0.21518   4.28166 
 O                     0.37552   4.77207  -1.49545 
 H                     0.57307   5.48996  -2.16299 
 H                    -0.56639   4.86676  -1.17309 
 O                    -1.80421   4.97675  -0.82936 
 H                    -2.65375   4.59337  -1.19175 
 H                    -1.99261   5.45016   0.03109 
 O                     3.2603    2.61518  -0.18054 
 H                     3.05744   3.5742   -0.37851 
 H                     2.57168   2.03284  -0.61263 
 O                     2.99496  -1.74391   3.90067 
 H                     3.77487  -1.22562   3.54969 
 H                     2.47546  -2.12363   3.13518 
 O                     3.12158  -4.238     1.25267 
 H                     2.46834  -3.57012   1.60944 
 H                     3.40135  -4.85589   1.98749 
 O                     2.85382   5.04593  -0.85792 
 H                     3.42244   5.55917  -1.50076 
 H                     1.90664   5.04416  -1.1787 
 O                    -2.64086  -1.05783   3.69183 
 H                    -2.47702  -2.00226   3.97685 
 H                    -1.78894  -0.538     3.75528 
 O                     0.49736  -4.7107    2.77977 
 H                     0.0636   -5.35916   2.15416 
 H                     0.92339  -5.20979   3.53435 
 O                    -1.45255   6.99272  -2.46076 
 H                    -1.63334   6.25406  -1.81132 
 H                    -1.57931   7.87447  -2.00635 
 O                    -4.17211   4.07448  -1.55798 
 H                    -4.63388   4.93128  -1.32842 
 H                    -4.82846   3.32104  -1.51811 
 O                     1.26413  -0.3668    5.11047 
 H                     1.57092   0.4876    5.52989 
 H                     2.05207  -0.85662   4.73733 
 O                     2.43559  -5.44363  -0.60736 
 H                     2.5395   -4.88438   0.21511 
 H                     3.332    -5.59163  -1.02519 
 
 NAtoms=     50 NQM=       50 NQMF=       0 NMMI=      0 NMMIF=      0
                NMic=       0 NMicF=      0.
                    Isotopes and Nuclear Properties:
 (Nuclear quadrupole moments (NQMom) in fm**2, nuclear magnetic moments (NMagM)
  in nuclear magnetons)

  Atom         1           2           3           4           5           6           7           8           9          10
 IAtWgt=          12           1           1          12           1          12           1          16          16           1
 AtmWgt=  12.0000000   1.0078250   1.0078250  12.0000000   1.0078250  12.0000000   1.0078250  15.9949146  15.9949146   1.0078250
 NucSpn=           0           1           1           0           1           0           1           0           0           1
 AtZEff=   0.0000000   0.0000000   0.0000000   0.0000000   0.0000000   0.0000000   0.0000000   0.0000000   0.0000000   0.0000000
 NQMom=    0.0000000   0.0000000   0.0000000   0.0000000   0.0000000   0.0000000   0.0000000   0.0000000   0.0000000   0.0000000
 NMagM=    0.0000000   2.7928460   2.7928460   0.0000000   2.7928460   0.0000000   2.7928460   0.0000000   0.0000000   2.7928460
 AtZNuc=   6.0000000   1.0000000   1.0000000   6.0000000   1.0000000   6.0000000   1.0000000   8.0000000   8.0000000   1.0000000

  Atom        11          12          13          14          15          16          17          18          19          20
 IAtWgt=           1          16           1           1          16           1           1          16           1           1
 AtmWgt=   1.0078250  15.9949146   1.0078250   1.0078250  15.9949146   1.0078250   1.0078250  15.9949146   1.0078250   1.0078250
 NucSpn=           1           0           1           1           0           1           1           0           1           1
 AtZEff=   0.0000000   0.0000000   0.0000000   0.0000000   0.0000000   0.0000000   0.0000000   0.0000000   0.0000000   0.0000000
 NQMom=    0.0000000   0.0000000   0.0000000   0.0000000   0.0000000   0.0000000   0.0000000   0.0000000   0.0000000   0.0000000
 NMagM=    2.7928460   0.0000000   2.7928460   2.7928460   0.0000000   2.7928460   2.7928460   0.0000000   2.7928460   2.7928460
 AtZNuc=   1.0000000   8.0000000   1.0000000   1.0000000   8.0000000   1.0000000   1.0000000   8.0000000   1.0000000   1.0000000

  Atom        21          22          23          24          25          26          27          28          29          30
 IAtWgt=          16           1           1          16           1           1          16           1           1          16
 AtmWgt=  15.9949146   1.0078250   1.0078250  15.9949146   1.0078250   1.0078250  15.9949146   1.0078250   1.0078250  15.9949146
 NucSpn=           0           1           1           0           1           1           0           1           1           0
 AtZEff=   0.0000000   0.0000000   0.0000000   0.0000000   0.0000000   0.0000000   0.0000000   0.0000000   0.0000000   0.0000000
 NQMom=    0.0000000   0.0000000   0.0000000   0.0000000   0.0000000   0.0000000   0.0000000   0.0000000   0.0000000   0.0000000
 NMagM=    0.0000000   2.7928460   2.7928460   0.0000000   2.7928460   2.7928460   0.0000000   2.7928460   2.7928460   0.0000000
 AtZNuc=   8.0000000   1.0000000   1.0000000   8.0000000   1.0000000   1.0000000   8.0000000   1.0000000   1.0000000   8.0000000

  Atom        31          32          33          34          35          36          37          38          39          40
 IAtWgt=           1           1          16           1           1          16           1           1          16           1
 AtmWgt=   1.0078250   1.0078250  15.9949146   1.0078250   1.0078250  15.9949146   1.0078250   1.0078250  15.9949146   1.0078250
 NucSpn=           1           1           0           1           1           0           1           1           0           1
 AtZEff=   0.0000000   0.0000000   0.0000000   0.0000000   0.0000000   0.0000000   0.0000000   0.0000000   0.0000000   0.0000000
 NQMom=    0.0000000   0.0000000   0.0000000   0.0000000   0.0000000   0.0000000   0.0000000   0.0000000   0.0000000   0.0000000
 NMagM=    2.7928460   2.7928460   0.0000000   2.7928460   2.7928460   0.0000000   2.7928460   2.7928460   0.0000000   2.7928460
 AtZNuc=   1.0000000   1.0000000   8.0000000   1.0000000   1.0000000   8.0000000   1.0000000   1.0000000   8.0000000   1.0000000

  Atom        41          42          43          44          45          46          47          48          49          50
 IAtWgt=           1          16           1           1          16           1           1          16           1           1
 AtmWgt=   1.0078250  15.9949146   1.0078250   1.0078250  15.9949146   1.0078250   1.0078250  15.9949146   1.0078250   1.0078250
 NucSpn=           1           0           1           1           0           1           1           0           1           1
 AtZEff=   0.0000000   0.0000000   0.0000000   0.0000000   0.0000000   0.0000000   0.0000000   0.0000000   0.0000000   0.0000000
 NQMom=    0.0000000   0.0000000   0.0000000   0.0000000   0.0000000   0.0000000   0.0000000   0.0000000   0.0000000   0.0000000
 NMagM=    2.7928460   0.0000000   2.7928460   2.7928460   0.0000000   2.7928460   2.7928460   0.0000000   2.7928460   2.7928460
 AtZNuc=   1.0000000   8.0000000   1.0000000   1.0000000   8.0000000   1.0000000   1.0000000   8.0000000   1.0000000   1.0000000
 Background charge distribution read from input stream:
 Point Charges:
 XYZ=   -2.4602    6.4454    1.6682 Q=   -0.8200 A=    0.0000 R=    0.0000 C=    0.0000
 XYZ=   -3.0385    5.6404    1.5358 Q=    0.4100 A=    0.0000 R=    0.0000 C=    0.0000
 XYZ=   -2.9803    7.1549    2.1436 Q=    0.4100 A=    0.0000 R=    0.0000 C=    0.0000
 XYZ=   -2.5562   -5.8054    0.4970 Q=   -0.8200 A=    0.0000 R=    0.0000 C=    0.0000
 XYZ=   -2.5923   -6.7761    0.2596 Q=    0.4100 A=    0.0000 R=    0.0000 C=    0.0000
 XYZ=   -3.0354   -5.2735   -0.2012 Q=    0.4100 A=    0.0000 R=    0.0000 C=    0.0000
 XYZ=    0.4359   -2.5656    5.7455 Q=   -0.8200 A=    0.0000 R=    0.0000 C=    0.0000
 XYZ=    0.7663   -1.6396    5.5623 Q=    0.4100 A=    0.0000 R=    0.0000 C=    0.0000
 XYZ=   -0.4917   -2.6657    5.3854 Q=    0.4100 A=    0.0000 R=    0.0000 C=    0.0000
 XYZ=   -4.5379    0.3970    2.9640 Q=   -0.8200 A=    0.0000 R=    0.0000 C=    0.0000
 XYZ=   -4.2027    1.3389    2.9427 Q=    0.4100 A=    0.0000 R=    0.0000 C=    0.0000
 XYZ=   -3.8693   -0.1843    3.4279 Q=    0.4100 A=    0.0000 R=    0.0000 C=    0.0000
 XYZ=   -4.2354    4.9571    1.3490 Q=   -0.8200 A=    0.0000 R=    0.0000 C=    0.0000
 XYZ=   -4.3602    5.5862    0.5817 Q=    0.4100 A=    0.0000 R=    0.0000 C=    0.0000
 XYZ=   -4.9191    5.1500    2.0527 Q=    0.4100 A=    0.0000 R=    0.0000 C=    0.0000
 XYZ=    5.1207   -4.3292    0.1888 Q=   -0.8200 A=    0.0000 R=    0.0000 C=    0.0000
 XYZ=    4.2898   -3.9069    0.5513 Q=    0.4100 A=    0.0000 R=    0.0000 C=    0.0000
 XYZ=    4.8877   -4.9019   -0.5972 Q=    0.4100 A=    0.0000 R=    0.0000 C=    0.0000
 XYZ=    0.6462   -6.9024   -0.7282 Q=   -0.8200 A=    0.0000 R=    0.0000 C=    0.0000
 XYZ=    1.4320   -6.2843   -0.7044 Q=    0.4100 A=    0.0000 R=    0.0000 C=    0.0000
 XYZ=    0.1967   -6.8359   -1.6190 Q=    0.4100 A=    0.0000 R=    0.0000 C=    0.0000
 XYZ=    5.7481    2.2911   -0.2102 Q=   -0.8200 A=    0.0000 R=    0.0000 C=    0.0000
 XYZ=    5.8919    2.4233   -1.1910 Q=    0.4100 A=    0.0000 R=    0.0000 C=    0.0000
 XYZ=    4.7790    2.4136    0.0040 Q=    0.4100 A=    0.0000 R=    0.0000 C=    0.0000
 XYZ=   -0.5082   -6.3176    1.2579 Q=   -0.8200 A=    0.0000 R=    0.0000 C=    0.0000
 XYZ=    0.0683   -6.4709    0.4553 Q=    0.4100 A=    0.0000 R=    0.0000 C=    0.0000
 XYZ=   -1.4041   -5.9827    0.9657 Q=    0.4100 A=    0.0000 R=    0.0000 C=    0.0000
 XYZ=    0.7191    6.5782   -2.9828 Q=   -0.8200 A=    0.0000 R=    0.0000 C=    0.0000
 XYZ=   -0.2422    6.8522   -2.9511 Q=    0.4100 A=    0.0000 R=    0.0000 C=    0.0000
 XYZ=    0.9257    6.1906   -3.8813 Q=    0.4100 A=    0.0000 R=    0.0000 C=    0.0000
 XYZ=    3.4743    6.4481    1.0579 Q=   -0.8200 A=    0.0000 R=    0.0000 C=    0.0000
 XYZ=    3.2511    5.7440    0.3838 Q=    0.4100 A=    0.0000 R=    0.0000 C=    0.0000
 XYZ=    3.3368    7.3523    0.6534 Q=    0.4100 A=    0.0000 R=    0.0000 C=    0.0000
 XYZ=   -0.8478    7.9919    0.8746 Q=   -0.8200 A=    0.0000 R=    0.0000 C=    0.0000
 XYZ=   -1.1175    8.7910    1.4120 Q=    0.4100 A=    0.0000 R=    0.0000 C=    0.0000
 XYZ=   -1.3833    7.1989    1.1650 Q=    0.4100 A=    0.0000 R=    0.0000 C=    0.0000
 XYZ=   -2.4998    3.5638   -5.2968 Q=   -0.8200 A=    0.0000 R=    0.0000 C=    0.0000
 XYZ=   -2.9775    4.1563   -4.6480 Q=    0.4100 A=    0.0000 R=    0.0000 C=    0.0000
 XYZ=   -2.1673    4.1108   -6.0652 Q=    0.4100 A=    0.0000 R=    0.0000 C=    0.0000
 XYZ=   -4.0580    4.8040   -3.8777 Q=   -0.8200 A=    0.0000 R=    0.0000 C=    0.0000
 XYZ=   -4.3474    4.4901   -2.9734 Q=    0.4100 A=    0.0000 R=    0.0000 C=    0.0000
 XYZ=   -4.5909    4.3326   -4.5805 Q=    0.4100 A=    0.0000 R=    0.0000 C=    0.0000
 XYZ=   -2.0678   -3.0007    4.8180 Q=   -0.8200 A=    0.0000 R=    0.0000 C=    0.0000
 XYZ=   -2.6712   -3.0084    5.6154 Q=    0.4100 A=    0.0000 R=    0.0000 C=    0.0000
 XYZ=   -1.9369   -3.9363    4.4901 Q=    0.4100 A=    0.0000 R=    0.0000 C=    0.0000
 XYZ=   -1.5344   -5.2433    4.0769 Q=   -0.8200 A=    0.0000 R=    0.0000 C=    0.0000
 XYZ=   -0.5765   -5.0269    3.8879 Q=    0.4100 A=    0.0000 R=    0.0000 C=    0.0000
 XYZ=   -1.5827   -6.0052    4.7228 Q=    0.4100 A=    0.0000 R=    0.0000 C=    0.0000
 XYZ=   -3.8082    1.9256   -6.1735 Q=   -0.8200 A=    0.0000 R=    0.0000 C=    0.0000
 XYZ=   -3.4023    1.0189   -6.0586 Q=    0.4100 A=    0.0000 R=    0.0000 C=    0.0000
 XYZ=   -3.2603    2.6010   -5.6798 Q=    0.4100 A=    0.0000 R=    0.0000 C=    0.0000
 XYZ=    1.3697    5.4307   -5.0190 Q=   -0.8200 A=    0.0000 R=    0.0000 C=    0.0000
 XYZ=    1.1234    4.4616   -5.0038 Q=    0.4100 A=    0.0000 R=    0.0000 C=    0.0000
 XYZ=    2.1041    5.5775   -5.6817 Q=    0.4100 A=    0.0000 R=    0.0000 C=    0.0000
 XYZ=    5.1810   -1.0777    3.1966 Q=   -0.8200 A=    0.0000 R=    0.0000 C=    0.0000
 XYZ=    5.1689   -0.1415    3.5477 Q=    0.4100 A=    0.0000 R=    0.0000 C=    0.0000
 XYZ=    5.6144   -1.0902    2.2955 Q=    0.4100 A=    0.0000 R=    0.0000 C=    0.0000
 XYZ=   -6.3912    3.2243    0.4656 Q=   -0.8200 A=    0.0000 R=    0.0000 C=    0.0000
 XYZ=   -5.5256    3.6859    0.6599 Q=    0.4100 A=    0.0000 R=    0.0000 C=    0.0000
 XYZ=   -6.3832    2.8828   -0.4742 Q=    0.4100 A=    0.0000 R=    0.0000 C=    0.0000
 XYZ=    3.8761   -2.8080    5.9028 Q=   -0.8200 A=    0.0000 R=    0.0000 C=    0.0000
 XYZ=    3.4344   -2.5178    5.0539 Q=    0.4100 A=    0.0000 R=    0.0000 C=    0.0000
 XYZ=    3.7035   -2.1297    6.6171 Q=    0.4100 A=    0.0000 R=    0.0000 C=    0.0000
 XYZ=   -0.9382    0.6664    7.3057 Q=   -0.8200 A=    0.0000 R=    0.0000 C=    0.0000
 XYZ=   -0.9697   -0.3029    7.5497 Q=    0.4100 A=    0.0000 R=    0.0000 C=    0.0000
 XYZ=   -1.0396    0.7643    6.3156 Q=    0.4100 A=    0.0000 R=    0.0000 C=    0.0000
 XYZ=    2.3937    1.2647    6.3230 Q=   -0.8200 A=    0.0000 R=    0.0000 C=    0.0000
 XYZ=    2.9777    0.5254    6.6581 Q=    0.4100 A=    0.0000 R=    0.0000 C=    0.0000
 XYZ=    2.9368    1.8911    5.7638 Q=    0.4100 A=    0.0000 R=    0.0000 C=    0.0000
 XYZ=   -3.3832   -5.4490    2.6273 Q=   -0.8200 A=    0.0000 R=    0.0000 C=    0.0000
 XYZ=   -2.5798   -5.3421    3.2131 Q=    0.4100 A=    0.0000 R=    0.0000 C=    0.0000
 XYZ=   -3.0895   -5.6237    1.6874 Q=    0.4100 A=    0.0000 R=    0.0000 C=    0.0000
 XYZ=   -5.3982   -1.2943    1.5120 Q=   -0.8200 A=    0.0000 R=    0.0000 C=    0.0000
 XYZ=   -5.1268   -0.4833    2.0303 Q=    0.4100 A=    0.0000 R=    0.0000 C=    0.0000
 XYZ=   -5.0032   -2.1090    1.9367 Q=    0.4100 A=    0.0000 R=    0.0000 C=    0.0000
 XYZ=   -6.0508    2.3456   -1.7374 Q=   -0.8200 A=    0.0000 R=    0.0000 C=    0.0000
 XYZ=   -6.3324    1.4040   -1.5529 Q=    0.4100 A=    0.0000 R=    0.0000 C=    0.0000
 XYZ=   -6.3185    2.5974   -2.6674 Q=    0.4100 A=    0.0000 R=    0.0000 C=    0.0000
 XYZ=    2.4565    7.9958   -2.2726 Q=   -0.8200 A=    0.0000 R=    0.0000 C=    0.0000
 XYZ=    3.3122    7.4783   -2.2638 Q=    0.4100 A=    0.0000 R=    0.0000 C=    0.0000
 XYZ=    1.6968    7.3801   -2.4819 Q=    0.4100 A=    0.0000 R=    0.0000 C=    0.0000
 XYZ=   -3.1621    7.1526   -4.1212 Q=   -0.8200 A=    0.0000 R=    0.0000 C=    0.0000
 XYZ=   -2.4622    6.9655   -3.4319 Q=    0.4100 A=    0.0000 R=    0.0000 C=    0.0000
 XYZ=   -3.8839    6.4633   -4.0590 Q=    0.4100 A=    0.0000 R=    0.0000 C=    0.0000
 XYZ=   -4.9725    6.1316   -0.6396 Q=   -0.8200 A=    0.0000 R=    0.0000 C=    0.0000
 XYZ=   -4.7015    7.0843   -0.5022 Q=    0.4100 A=    0.0000 R=    0.0000 C=    0.0000
 XYZ=   -5.8065    6.0984   -1.1905 Q=    0.4100 A=    0.0000 R=    0.0000 C=    0.0000
 XYZ=   -4.5007   -1.4648    5.3995 Q=   -0.8200 A=    0.0000 R=    0.0000 C=    0.0000
 XYZ=   -3.8652   -1.1173    4.7099 Q=    0.4100 A=    0.0000 R=    0.0000 C=    0.0000
 XYZ=   -3.9988   -2.0121    6.0694 Q=    0.4100 A=    0.0000 R=    0.0000 C=    0.0000
 XYZ=    2.7052    0.5474   -7.1505 Q=   -0.8200 A=    0.0000 R=    0.0000 C=    0.0000
 XYZ=    2.9006    1.2152   -7.8688 Q=    0.4100 A=    0.0000 R=    0.0000 C=    0.0000
 XYZ=    1.7247    0.3512   -7.1357 Q=    0.4100 A=    0.0000 R=    0.0000 C=    0.0000
 XYZ=    1.4984    8.5812    1.0382 Q=   -0.8200 A=    0.0000 R=    0.0000 C=    0.0000
 XYZ=    1.3407    8.9896    1.9373 Q=    0.4100 A=    0.0000 R=    0.0000 C=    0.0000
 XYZ=    0.6338    8.2370    0.6722 Q=    0.4100 A=    0.0000 R=    0.0000 C=    0.0000
 XYZ=   -4.9479   -3.4524    2.4183 Q=   -0.8200 A=    0.0000 R=    0.0000 C=    0.0000
 XYZ=   -5.4760   -3.2798    3.2498 Q=    0.4100 A=    0.0000 R=    0.0000 C=    0.0000
 XYZ=   -4.2568   -4.1515    2.6015 Q=    0.4100 A=    0.0000 R=    0.0000 C=    0.0000
 XYZ=    1.9784   -4.1140    6.4491 Q=   -0.8200 A=    0.0000 R=    0.0000 C=    0.0000
 XYZ=    2.9032   -3.7636    6.3007 Q=    0.4100 A=    0.0000 R=    0.0000 C=    0.0000
 XYZ=    1.3150   -3.3840    6.2848 Q=    0.4100 A=    0.0000 R=    0.0000 C=    0.0000
 XYZ=    2.8779    6.3694    3.3561 Q=   -0.8200 A=    0.0000 R=    0.0000 C=    0.0000
 XYZ=    2.0300    6.8366    3.6068 Q=    0.4100 A=    0.0000 R=    0.0000 C=    0.0000
 XYZ=    3.0460    6.4862    2.3773 Q=    0.4100 A=    0.0000 R=    0.0000 C=    0.0000
 XYZ=    5.4214    1.0738    4.2499 Q=   -0.8200 A=    0.0000 R=    0.0000 C=    0.0000
 XYZ=    5.7744    0.4286    4.9276 Q=    0.4100 A=    0.0000 R=    0.0000 C=    0.0000
 XYZ=    4.8239    1.7370    4.7007 Q=    0.4100 A=    0.0000 R=    0.0000 C=    0.0000
 XYZ=    3.8042   -5.4813    3.1891 Q=   -0.8200 A=    0.0000 R=    0.0000 C=    0.0000
 XYZ=    4.2661   -4.8322    3.7936 Q=    0.4100 A=    0.0000 R=    0.0000 C=    0.0000
 XYZ=    3.0271   -5.8887    3.6690 Q=    0.4100 A=    0.0000 R=    0.0000 C=    0.0000
 XYZ=   -1.4790    8.8914   -1.2050 Q=   -0.8200 A=    0.0000 R=    0.0000 C=    0.0000
 XYZ=   -0.6571    9.2944   -1.6076 Q=    0.4100 A=    0.0000 R=    0.0000 C=    0.0000
 XYZ=   -1.2604    8.5200   -0.3026 Q=    0.4100 A=    0.0000 R=    0.0000 C=    0.0000
 XYZ=   -0.7836    5.7610   -5.7776 Q=   -0.8200 A=    0.0000 R=    0.0000 C=    0.0000
 XYZ=    0.1326    5.8706   -5.3922 Q=    0.4100 A=    0.0000 R=    0.0000 C=    0.0000
 XYZ=   -1.4375    6.2923   -5.2389 Q=    0.4100 A=    0.0000 R=    0.0000 C=    0.0000
 XYZ=    4.4402   -0.2921   -5.5741 Q=   -0.8200 A=    0.0000 R=    0.0000 C=    0.0000
 XYZ=    3.6702    0.1941   -5.9874 Q=    0.4100 A=    0.0000 R=    0.0000 C=    0.0000
 XYZ=    4.9327    0.3247   -4.9600 Q=    0.4100 A=    0.0000 R=    0.0000 C=    0.0000
 XYZ=    4.1692    2.7072    5.5075 Q=   -0.8200 A=    0.0000 R=    0.0000 C=    0.0000
 XYZ=    4.7915    2.7332    6.2899 Q=    0.4100 A=    0.0000 R=    0.0000 C=    0.0000
 XYZ=    4.3451    3.4937    4.9155 Q=    0.4100 A=    0.0000 R=    0.0000 C=    0.0000
 XYZ=    1.7966   -5.7076    4.5727 Q=   -0.8200 A=    0.0000 R=    0.0000 C=    0.0000
 XYZ=    1.1664   -6.4788    4.6634 Q=    0.4100 A=    0.0000 R=    0.0000 C=    0.0000
 XYZ=    1.7470   -5.1384    5.3934 Q=    0.4100 A=    0.0000 R=    0.0000 C=    0.0000
 XYZ=    4.5878   -5.6544   -1.5259 Q=   -0.8200 A=    0.0000 R=    0.0000 C=    0.0000
 XYZ=    5.2554   -6.3968   -1.4685 Q=    0.4100 A=    0.0000 R=    0.0000 C=    0.0000
 XYZ=    4.6671   -5.2030   -2.4147 Q=    0.4100 A=    0.0000 R=    0.0000 C=    0.0000
 XYZ=    5.2185    5.4171    2.3057 Q=   -0.8200 A=    0.0000 R=    0.0000 C=    0.0000
 XYZ=    4.9452    5.1208    3.2209 Q=    0.4100 A=    0.0000 R=    0.0000 C=    0.0000
 XYZ=    4.4218    5.7769    1.8201 Q=    0.4100 A=    0.0000 R=    0.0000 C=    0.0000
 XYZ=   -6.6726   -1.8307   -0.3791 Q=   -0.8200 A=    0.0000 R=    0.0000 C=    0.0000
 XYZ=   -6.0624   -1.5414    0.3583 Q=    0.4100 A=    0.0000 R=    0.0000 C=    0.0000
 XYZ=   -6.7292   -2.8290   -0.3926 Q=    0.4100 A=    0.0000 R=    0.0000 C=    0.0000
 XYZ=    6.5849   -2.9207   -0.8325 Q=   -0.8200 A=    0.0000 R=    0.0000 C=    0.0000
 XYZ=    5.9098   -3.5422   -0.4349 Q=    0.4100 A=    0.0000 R=    0.0000 C=    0.0000
 XYZ=    7.4501   -3.4057   -0.9597 Q=    0.4100 A=    0.0000 R=    0.0000 C=    0.0000
 XYZ=    4.4820    4.8602    4.5230 Q=   -0.8200 A=    0.0000 R=    0.0000 C=    0.0000
 XYZ=    4.8946    5.2852    5.3288 Q=    0.4100 A=    0.0000 R=    0.0000 C=    0.0000
 XYZ=    3.6460    5.3514    4.2784 Q=    0.4100 A=    0.0000 R=    0.0000 C=    0.0000
 XYZ=    6.6335   -1.5894    1.2996 Q=   -0.8200 A=    0.0000 R=    0.0000 C=    0.0000
 XYZ=    6.5799   -2.0891    0.4351 Q=    0.4100 A=    0.0000 R=    0.0000 C=    0.0000
 XYZ=    7.1193   -2.1438    1.9754 Q=    0.4100 A=    0.0000 R=    0.0000 C=    0.0000
 XYZ=   -1.0401   -1.9247    7.6321 Q=   -0.8200 A=    0.0000 R=    0.0000 C=    0.0000
 XYZ=   -0.3266   -2.2535    7.0133 Q=    0.4100 A=    0.0000 R=    0.0000 C=    0.0000
 XYZ=   -0.8048   -2.1705    8.5725 Q=    0.4100 A=    0.0000 R=    0.0000 C=    0.0000
 XYZ=    6.0368   -2.6054    4.9242 Q=   -0.8200 A=    0.0000 R=    0.0000 C=    0.0000
 XYZ=    5.7140   -1.9935    4.2022 Q=    0.4100 A=    0.0000 R=    0.0000 C=    0.0000
 XYZ=    5.2668   -2.8727    5.5037 Q=    0.4100 A=    0.0000 R=    0.0000 C=    0.0000
 XYZ=   -6.3527    1.5177    4.1034 Q=   -0.8200 A=    0.0000 R=    0.0000 C=    0.0000
 XYZ=   -5.5269    1.0765    3.7521 Q=    0.4100 A=    0.0000 R=    0.0000 C=    0.0000
 XYZ=   -6.9033    0.8469    4.6003 Q=    0.4100 A=    0.0000 R=    0.0000 C=    0.0000
 XYZ=   -5.4258    3.7117   -6.0382 Q=   -0.8200 A=    0.0000 R=    0.0000 C=    0.0000
 XYZ=   -5.4666    4.0458   -6.9799 Q=    0.4100 A=    0.0000 R=    0.0000 C=    0.0000
 XYZ=   -4.8438    2.8995   -5.9977 Q=    0.4100 A=    0.0000 R=    0.0000 C=    0.0000
 XYZ=   -7.2797    0.2311   -1.6292 Q=   -0.8200 A=    0.0000 R=    0.0000 C=    0.0000
 XYZ=   -7.5549   -0.1741   -2.5011 Q=    0.4100 A=    0.0000 R=    0.0000 C=    0.0000
 XYZ=   -6.9484   -0.4874   -1.0176 Q=    0.4100 A=    0.0000 R=    0.0000 C=    0.0000
 XYZ=    4.3565    6.3410   -2.1361 Q=   -0.8200 A=    0.0000 R=    0.0000 C=    0.0000
 XYZ=    4.9002    7.0451   -1.6792 Q=    0.4100 A=    0.0000 R=    0.0000 C=    0.0000
 XYZ=    4.9082    5.9016   -2.8450 Q=    0.4100 A=    0.0000 R=    0.0000 C=    0.0000
 XYZ=    5.0275   -4.3799   -3.7133 Q=   -0.8200 A=    0.0000 R=    0.0000 C=    0.0000
 XYZ=    5.0481   -3.5543   -4.2773 Q=    0.4100 A=    0.0000 R=    0.0000 C=    0.0000
 XYZ=    4.5665   -5.1134   -4.2129 Q=    0.4100 A=    0.0000 R=    0.0000 C=    0.0000
 XYZ=    5.9917   -5.3970    2.0320 Q=   -0.8200 A=    0.0000 R=    0.0000 C=    0.0000
 XYZ=    5.6021   -4.8796    1.2700 Q=    0.4100 A=    0.0000 R=    0.0000 C=    0.0000
 XYZ=    5.2886   -5.9878    2.4277 Q=    0.4100 A=    0.0000 R=    0.0000 C=    0.0000
 XYZ=   -0.3931   -8.5421    1.9325 Q=   -0.8200 A=    0.0000 R=    0.0000 C=    0.0000
 XYZ=   -0.4580   -7.5946    1.6196 Q=    0.4100 A=    0.0000 R=    0.0000 C=    0.0000
 XYZ=   -0.1326   -9.1291    1.1660 Q=    0.4100 A=    0.0000 R=    0.0000 C=    0.0000
 XYZ=    6.7532    3.7295    1.4626 Q=   -0.8200 A=    0.0000 R=    0.0000 C=    0.0000
 XYZ=    6.0520    4.4184    1.6459 Q=    0.4100 A=    0.0000 R=    0.0000 C=    0.0000
 XYZ=    6.4276    3.1026    0.7548 Q=    0.4100 A=    0.0000 R=    0.0000 C=    0.0000
 XYZ=    7.4093    0.4988    0.5423 Q=   -0.8200 A=    0.0000 R=    0.0000 C=    0.0000
 XYZ=    6.6298    1.1191    0.4547 Q=    0.4100 A=    0.0000 R=    0.0000 C=    0.0000
 XYZ=    7.0828   -0.4143    0.7865 Q=    0.4100 A=    0.0000 R=    0.0000 C=    0.0000
 XYZ=   -6.6028   -4.2799    0.2204 Q=   -0.8200 A=    0.0000 R=    0.0000 C=    0.0000
 XYZ=   -6.1908   -4.9439   -0.4036 Q=    0.4100 A=    0.0000 R=    0.0000 C=    0.0000
 XYZ=   -5.9296   -4.0057    0.9072 Q=    0.4100 A=    0.0000 R=    0.0000 C=    0.0000
 XYZ=    5.3615   -2.3017   -4.8372 Q=   -0.8200 A=    0.0000 R=    0.0000 C=    0.0000
 XYZ=    5.9946   -2.1452   -4.0791 Q=    0.4100 A=    0.0000 R=    0.0000 C=    0.0000
 XYZ=    4.9472   -1.4334   -5.1102 Q=    0.4100 A=    0.0000 R=    0.0000 C=    0.0000
 XYZ=    1.5937    3.0581    7.9124 Q=   -0.8200 A=    0.0000 R=    0.0000 C=    0.0000
 XYZ=    1.8301    2.3097    7.2928 Q=    0.4100 A=    0.0000 R=    0.0000 C=    0.0000
 XYZ=    0.6653    2.9234    8.2588 Q=    0.4100 A=    0.0000 R=    0.0000 C=    0.0000
 XYZ=   -3.0928   -2.8496    6.7083 Q=   -0.8200 A=    0.0000 R=    0.0000 C=    0.0000
 XYZ=   -2.3250   -2.2319    6.8785 Q=    0.4100 A=    0.0000 R=    0.0000 C=    0.0000
 XYZ=   -3.0667   -3.6027    7.3658 Q=    0.4100 A=    0.0000 R=    0.0000 C=    0.0000
 XYZ=    6.9178   -1.3684   -2.8458 Q=   -0.8200 A=    0.0000 R=    0.0000 C=    0.0000
 XYZ=    7.8270   -1.0142   -2.6268 Q=    0.4100 A=    0.0000 R=    0.0000 C=    0.0000
 XYZ=    6.5414   -1.8372   -2.0467 Q=    0.4100 A=    0.0000 R=    0.0000 C=    0.0000
 XYZ=   -5.4670   -5.8347   -1.2611 Q=   -0.8200 A=    0.0000 R=    0.0000 C=    0.0000
 XYZ=   -5.3913   -5.6778   -2.2458 Q=    0.4100 A=    0.0000 R=    0.0000 C=    0.0000
 XYZ=   -5.3671   -6.8114   -1.0706 Q=    0.4100 A=    0.0000 R=    0.0000 C=    0.0000
 XYZ=    7.2833    2.1396    3.0970 Q=   -0.8200 A=    0.0000 R=    0.0000 C=    0.0000
 XYZ=    7.0470    2.7445    2.3365 Q=    0.4100 A=    0.0000 R=    0.0000 C=    0.0000
 XYZ=    6.4510    1.7225    3.4621 Q=    0.4100 A=    0.0000 R=    0.0000 C=    0.0000
 XYZ=   -6.7579    3.1625   -3.9336 Q=   -0.8200 A=    0.0000 R=    0.0000 C=    0.0000
 XYZ=   -6.1454    3.3029   -4.7115 Q=    0.4100 A=    0.0000 R=    0.0000 C=    0.0000
 XYZ=   -7.6982    3.0722   -4.2617 Q=    0.4100 A=    0.0000 R=    0.0000 C=    0.0000
 XYZ=   -7.5710    1.9671    2.1186 Q=   -0.8200 A=    0.0000 R=    0.0000 C=    0.0000
 XYZ=   -7.1261    2.4672    1.3757 Q=    0.4100 A=    0.0000 R=    0.0000 C=    0.0000
 XYZ=   -6.9934    1.9988    2.9344 Q=    0.4100 A=    0.0000 R=    0.0000 C=    0.0000
 XYZ=   -4.5046    2.0097   -8.4774 Q=   -0.8200 A=    0.0000 R=    0.0000 C=    0.0000
 XYZ=   -4.3840    1.0927   -8.8573 Q=    0.4100 A=    0.0000 R=    0.0000 C=    0.0000
 XYZ=   -4.1273    2.0392   -7.5517 Q=    0.4100 A=    0.0000 R=    0.0000 C=    0.0000
 XYZ=   -5.9335    5.1176    3.0686 Q=   -0.8200 A=    0.0000 R=    0.0000 C=    0.0000
 XYZ=   -6.6699    5.7480    2.8227 Q=    0.4100 A=    0.0000 R=    0.0000 C=    0.0000
 XYZ=   -6.2350    4.5295    3.8191 Q=    0.4100 A=    0.0000 R=    0.0000 C=    0.0000
 XYZ=   -2.9386   -8.0186   -0.0052 Q=   -0.8200 A=    0.0000 R=    0.0000 C=    0.0000
 XYZ=   -3.8855   -7.8922   -0.3010 Q=    0.4100 A=    0.0000 R=    0.0000 C=    0.0000
 XYZ=   -2.6773   -8.9765   -0.1242 Q=    0.4100 A=    0.0000 R=    0.0000 C=    0.0000
 XYZ=    1.0014    9.7876   -2.0068 Q=   -0.8200 A=    0.0000 R=    0.0000 C=    0.0000
 XYZ=    0.8608   10.1443   -2.9305 Q=    0.4100 A=    0.0000 R=    0.0000 C=    0.0000
 XYZ=    1.6276    9.0088   -2.0421 Q=    0.4100 A=    0.0000 R=    0.0000 C=    0.0000
 XYZ=    3.5318    8.7530   -0.1143 Q=   -0.8200 A=    0.0000 R=    0.0000 C=    0.0000
 XYZ=    2.7571    8.7284    0.5176 Q=    0.4100 A=    0.0000 R=    0.0000 C=    0.0000
 XYZ=    3.1953    8.8579   -1.0501 Q=    0.4100 A=    0.0000 R=    0.0000 C=    0.0000
 XYZ=    6.3117    2.5238   -2.4742 Q=   -0.8200 A=    0.0000 R=    0.0000 C=    0.0000
 XYZ=    6.1471    3.3653   -2.9889 Q=    0.4100 A=    0.0000 R=    0.0000 C=    0.0000
 XYZ=    6.3063    1.7438   -3.1001 Q=    0.4100 A=    0.0000 R=    0.0000 C=    0.0000
 XYZ=   -7.6789   -0.4563    1.9112 Q=   -0.8200 A=    0.0000 R=    0.0000 C=    0.0000
 XYZ=   -6.8654   -0.8690    1.5014 Q=    0.4100 A=    0.0000 R=    0.0000 C=    0.0000
 XYZ=   -7.5227    0.5217    2.0495 Q=    0.4100 A=    0.0000 R=    0.0000 C=    0.0000
 XYZ=    0.1753   -7.2929    4.2000 Q=   -0.8200 A=    0.0000 R=    0.0000 C=    0.0000
 XYZ=   -0.5935   -7.1803    4.8296 Q=    0.4100 A=    0.0000 R=    0.0000 C=    0.0000
 XYZ=   -0.0765   -7.9381    3.4786 Q=    0.4100 A=    0.0000 R=    0.0000 C=    0.0000
 XYZ=   -0.6247    2.6453    8.5336 Q=   -0.8200 A=    0.0000 R=    0.0000 C=    0.0000
 XYZ=   -0.6959    1.7599    8.0741 Q=    0.4100 A=    0.0000 R=    0.0000 C=    0.0000
 XYZ=   -0.7842    2.5259    9.5136 Q=    0.4100 A=    0.0000 R=    0.0000 C=    0.0000
 XYZ=    3.9154   -0.5960    7.1204 Q=   -0.8200 A=    0.0000 R=    0.0000 C=    0.0000
 XYZ=    4.0277   -0.2066    8.0346 Q=    0.4100 A=    0.0000 R=    0.0000 C=    0.0000
 XYZ=    4.7563   -0.4628    6.5959 Q=    0.4100 A=    0.0000 R=    0.0000 C=    0.0000
 XYZ=   -0.9261    4.9631   -7.9933 Q=   -0.8200 A=    0.0000 R=    0.0000 C=    0.0000
 XYZ=   -0.6664    5.3516   -7.1092 Q=    0.4100 A=    0.0000 R=    0.0000 C=    0.0000
 XYZ=   -1.7105    5.4636   -8.3598 Q=    0.4100 A=    0.0000 R=    0.0000 C=    0.0000
 XYZ=    1.0979    6.7870    6.0221 Q=   -0.8200 A=    0.0000 R=    0.0000 C=    0.0000
 XYZ=    2.0315    6.7262    5.6688 Q=    0.4100 A=    0.0000 R=    0.0000 C=    0.0000
 XYZ=    1.0241    6.2509    6.8630 Q=    0.4100 A=    0.0000 R=    0.0000 C=    0.0000
 XYZ=   -4.8999    6.6905    4.4718 Q=   -0.8200 A=    0.0000 R=    0.0000 C=    0.0000
 XYZ=   -5.5705    6.9106    5.1803 Q=    0.4100 A=    0.0000 R=    0.0000 C=    0.0000
 XYZ=   -5.2561    5.9576    3.8921 Q=    0.4100 A=    0.0000 R=    0.0000 C=    0.0000
 XYZ=   -6.0781   -3.0116    4.3456 Q=   -0.8200 A=    0.0000 R=    0.0000 C=    0.0000
 XYZ=   -6.9532   -2.5278    4.3523 Q=    0.4100 A=    0.0000 R=    0.0000 C=    0.0000
 XYZ=   -5.4183   -2.5149    4.9095 Q=    0.4100 A=    0.0000 R=    0.0000 C=    0.0000
 XYZ=   -4.6524    8.5137   -0.5848 Q=   -0.8200 A=    0.0000 R=    0.0000 C=    0.0000
 XYZ=   -3.9747    8.8619   -1.2325 Q=    0.4100 A=    0.0000 R=    0.0000 C=    0.0000
 XYZ=   -4.8442    9.2123    0.1046 Q=    0.4100 A=    0.0000 R=    0.0000 C=    0.0000
 XYZ=   -3.5495    8.2090    3.0681 Q=   -0.8200 A=    0.0000 R=    0.0000 C=    0.0000
 XYZ=   -4.1683    7.5143    3.4351 Q=    0.4100 A=    0.0000 R=    0.0000 C=    0.0000
 XYZ=   -3.8752    9.1173    3.3304 Q=    0.4100 A=    0.0000 R=    0.0000 C=    0.0000
 XYZ=   -8.1687    4.7070    1.1743 Q=   -0.8200 A=    0.0000 R=    0.0000 C=    0.0000
 XYZ=   -7.4794    4.0214    0.9401 Q=    0.4100 A=    0.0000 R=    0.0000 C=    0.0000
 XYZ=   -8.9181    4.2699    1.6716 Q=    0.4100 A=    0.0000 R=    0.0000 C=    0.0000
 XYZ=    7.3716   -3.5405    2.8271 Q=   -0.8200 A=    0.0000 R=    0.0000 C=    0.0000
 XYZ=    7.0173   -3.2052    3.7001 Q=    0.4100 A=    0.0000 R=    0.0000 C=    0.0000
 XYZ=    6.7892   -4.2820    2.4939 Q=    0.4100 A=    0.0000 R=    0.0000 C=    0.0000
 XYZ=   -7.1526    5.2569   -2.6311 Q=   -0.8200 A=    0.0000 R=    0.0000 C=    0.0000
 XYZ=   -7.3720    5.8965   -3.3679 Q=    0.4100 A=    0.0000 R=    0.0000 C=    0.0000
 XYZ=   -7.0332    4.3394   -3.0108 Q=    0.4100 A=    0.0000 R=    0.0000 C=    0.0000
 XYZ=    4.9176   -2.8647   -7.0837 Q=   -0.8200 A=    0.0000 R=    0.0000 C=    0.0000
 XYZ=    4.9744   -2.5399   -6.1396 Q=    0.4100 A=    0.0000 R=    0.0000 C=    0.0000
 XYZ=    5.7925   -3.2689   -7.3503 Q=    0.4100 A=    0.0000 R=    0.0000 C=    0.0000
 XYZ=   -4.7633   -6.6861    4.1247 Q=   -0.8200 A=    0.0000 R=    0.0000 C=    0.0000
 XYZ=   -4.2621   -6.2111    3.4014 Q=    0.4100 A=    0.0000 R=    0.0000 C=    0.0000
 XYZ=   -5.5838   -6.1649    4.3592 Q=    0.4100 A=    0.0000 R=    0.0000 C=    0.0000
 XYZ=    1.1304    5.3728    7.8813 Q=   -0.8200 A=    0.0000 R=    0.0000 C=    0.0000
 XYZ=    1.2310    5.5921    8.8518 Q=    0.4100 A=    0.0000 R=    0.0000 C=    0.0000
 XYZ=    1.3812    4.4169    7.7279 Q=    0.4100 A=    0.0000 R=    0.0000 C=    0.0000
 XYZ=   -3.3800    9.9560   -1.9538 Q=   -0.8200 A=    0.0000 R=    0.0000 C=    0.0000
 XYZ=   -3.8933   10.4566   -1.2567 Q=    0.4100 A=    0.0000 R=    0.0000 C=    0.0000
 XYZ=   -2.5381    9.5949   -1.5528 Q=    0.4100 A=    0.0000 R=    0.0000 C=    0.0000
 XYZ=   -1.7472    9.7438    2.2075 Q=   -0.8200 A=    0.0000 R=    0.0000 C=    0.0000
 XYZ=   -2.4200    9.1005    2.5731 Q=    0.4100 A=    0.0000 R=    0.0000 C=    0.0000
 XYZ=   -2.1740   10.6402    2.0879 Q=    0.4100 A=    0.0000 R=    0.0000 C=    0.0000
 XYZ=    6.4052    0.8164   -4.0083 Q=   -0.8200 A=    0.0000 R=    0.0000 C=    0.0000
 XYZ=    6.6936    0.9483   -4.9567 Q=    0.4100 A=    0.0000 R=    0.0000 C=    0.0000
 XYZ=    6.7440   -0.0639   -3.6763 Q=    0.4100 A=    0.0000 R=    0.0000 C=    0.0000
 XYZ=    7.2795   -5.0767   -2.7890 Q=   -0.8200 A=    0.0000 R=    0.0000 C=    0.0000
 XYZ=    6.4688   -4.5393   -3.0216 Q=    0.4100 A=    0.0000 R=    0.0000 C=    0.0000
 XYZ=    7.9455   -5.0139   -3.5323 Q=    0.4100 A=    0.0000 R=    0.0000 C=    0.0000
 XYZ=   -2.5117    7.5256    5.4734 Q=   -0.8200 A=    0.0000 R=    0.0000 C=    0.0000
 XYZ=   -3.1748    7.1930    4.8027 Q=    0.4100 A=    0.0000 R=    0.0000 C=    0.0000
 XYZ=   -2.5126    8.5256    5.4752 Q=    0.4100 A=    0.0000 R=    0.0000 C=    0.0000
 XYZ=    4.3394   -0.9604   -8.2699 Q=   -0.8200 A=    0.0000 R=    0.0000 C=    0.0000
 XYZ=    4.5404   -1.7734   -7.7234 Q=    0.4100 A=    0.0000 R=    0.0000 C=    0.0000
 XYZ=    3.7278   -0.3573   -7.7576 Q=    0.4100 A=    0.0000 R=    0.0000 C=    0.0000
 XYZ=    5.9706    4.7663   -3.5087 Q=   -0.8200 A=    0.0000 R=    0.0000 C=    0.0000
 XYZ=    6.9101    4.9986   -3.2568 Q=    0.4100 A=    0.0000 R=    0.0000 C=    0.0000
 XYZ=    5.8130    5.0074   -4.4663 Q=    0.4100 A=    0.0000 R=    0.0000 C=    0.0000
 XYZ=   -1.9045    3.2758   -9.3391 Q=   -0.8200 A=    0.0000 R=    0.0000 C=    0.0000
 XYZ=   -2.5701    2.8797   -8.7066 Q=    0.4100 A=    0.0000 R=    0.0000 C=    0.0000
 XYZ=   -1.3199    3.9208   -8.8469 Q=    0.4100 A=    0.0000 R=    0.0000 C=    0.0000
 XYZ=   -0.2903    8.2621    5.1439 Q=   -0.8200 A=    0.0000 R=    0.0000 C=    0.0000
 XYZ=    0.3482    7.6681    5.6334 Q=    0.4100 A=    0.0000 R=    0.0000 C=    0.0000
 XYZ=   -1.1763    7.8053    5.0645 Q=    0.4100 A=    0.0000 R=    0.0000 C=    0.0000
 XYZ=   -6.6723    3.8606    4.8660 Q=   -0.8200 A=    0.0000 R=    0.0000 C=    0.0000
 XYZ=   -6.4186    3.7280    5.8242 Q=    0.4100 A=    0.0000 R=    0.0000 C=    0.0000
 XYZ=   -6.5753    2.9960    4.3729 Q=    0.4100 A=    0.0000 R=    0.0000 C=    0.0000
 XYZ=   -6.0107   -5.6511   -3.9780 Q=   -0.8200 A=    0.0000 R=    0.0000 C=    0.0000
 XYZ=   -6.0404   -5.3095   -4.9174 Q=    0.4100 A=    0.0000 R=    0.0000 C=    0.0000
 XYZ=   -6.9285   -5.6182   -3.5821 Q=    0.4100 A=    0.0000 R=    0.0000 C=    0.0000
 XYZ=   -1.2145    4.9503    8.1242 Q=   -0.8200 A=    0.0000 R=    0.0000 C=    0.0000
 XYZ=   -0.3353    5.2616    7.7632 Q=    0.4100 A=    0.0000 R=    0.0000 C=    0.0000
 XYZ=   -1.1865    3.9602    8.2617 Q=    0.4100 A=    0.0000 R=    0.0000 C=    0.0000
 XYZ=    6.0851   -0.3412    6.1708 Q=   -0.8200 A=    0.0000 R=    0.0000 C=    0.0000
 XYZ=    6.6946    0.2122    6.7385 Q=    0.4100 A=    0.0000 R=    0.0000 C=    0.0000
 XYZ=    6.4010   -1.2900    6.1694 Q=    0.4100 A=    0.0000 R=    0.0000 C=    0.0000
 XYZ=    5.4836    8.0093   -0.9081 Q=   -0.8200 A=    0.0000 R=    0.0000 C=    0.0000
 XYZ=    4.6631    8.3780   -0.4712 Q=    0.4100 A=    0.0000 R=    0.0000 C=    0.0000
 XYZ=    6.2756    8.1698   -0.3190 Q=    0.4100 A=    0.0000 R=    0.0000 C=    0.0000
 XYZ=   -1.5982   -6.7291    5.8354 Q=   -0.8200 A=    0.0000 R=    0.0000 C=    0.0000
 XYZ=   -1.2804   -6.3016    6.6818 Q=    0.4100 A=    0.0000 R=    0.0000 C=    0.0000
 XYZ=   -2.3578   -7.3469    6.0389 Q=    0.4100 A=    0.0000 R=    0.0000 C=    0.0000
 XYZ=    1.0033   -4.5996    8.5912 Q=   -0.8200 A=    0.0000 R=    0.0000 C=    0.0000
 XYZ=    1.6460   -4.4704    7.8360 Q=    0.4100 A=    0.0000 R=    0.0000 C=    0.0000
 XYZ=    1.3049   -5.3664    9.1579 Q=    0.4100 A=    0.0000 R=    0.0000 C=    0.0000
 XYZ=    8.1263    1.5034   -1.4949 Q=   -0.8200 A=    0.0000 R=    0.0000 C=    0.0000
 XYZ=    7.3732    1.9572   -1.9712 Q=    0.4100 A=    0.0000 R=    0.0000 C=    0.0000
 XYZ=    7.8730    1.3514   -0.5396 Q=    0.4100 A=    0.0000 R=    0.0000 C=    0.0000
 XYZ=    7.0799    6.7395    2.4626 Q=   -0.8200 A=    0.0000 R=    0.0000 C=    0.0000
 XYZ=    6.2033    6.3307    2.2084 Q=    0.4100 A=    0.0000 R=    0.0000 C=    0.0000
 XYZ=    7.8003    6.0488    2.3999 Q=    0.4100 A=    0.0000 R=    0.0000 C=    0.0000
 XYZ=   -9.5258    0.8263   -1.3380 Q=   -0.8200 A=    0.0000 R=    0.0000 C=    0.0000
 XYZ=   -9.8582    1.6851   -1.7278 Q=    0.4100 A=    0.0000 R=    0.0000 C=    0.0000
 XYZ=   -8.5421    0.7458   -1.4991 Q=    0.4100 A=    0.0000 R=    0.0000 C=    0.0000
 XYZ=   -3.4508    9.6784   -4.2652 Q=   -0.8200 A=    0.0000 R=    0.0000 C=    0.0000
 XYZ=   -3.6294    9.8650   -3.2991 Q=    0.4100 A=    0.0000 R=    0.0000 C=    0.0000
 XYZ=   -3.3175    8.6960   -4.3957 Q=    0.4100 A=    0.0000 R=    0.0000 C=    0.0000
 XYZ=    3.2174    5.5091   -6.6724 Q=   -0.8200 A=    0.0000 R=    0.0000 C=    0.0000
 XYZ=    4.1423    5.3063   -6.3509 Q=    0.4100 A=    0.0000 R=    0.0000 C=    0.0000
 XYZ=    3.1229    6.4943   -6.8157 Q=    0.4100 A=    0.0000 R=    0.0000 C=    0.0000
 XYZ=   -3.0537    6.3884    7.3940 Q=   -0.8200 A=    0.0000 R=    0.0000 C=    0.0000
 XYZ=   -2.8049    6.9634    6.6145 Q=    0.4100 A=    0.0000 R=    0.0000 C=    0.0000
 XYZ=   -2.4985    5.5567    7.3852 Q=    0.4100 A=    0.0000 R=    0.0000 C=    0.0000
 XYZ=    0.4316    9.9193    3.1125 Q=   -0.8200 A=    0.0000 R=    0.0000 C=    0.0000
 XYZ=   -0.3845   10.0691    2.5542 Q=    0.4100 A=    0.0000 R=    0.0000 C=    0.0000
 XYZ=    0.1946    9.3576    3.9052 Q=    0.4100 A=    0.0000 R=    0.0000 C=    0.0000
 XYZ=    3.1150    2.1804   -8.8603 Q=   -0.8200 A=    0.0000 R=    0.0000 C=    0.0000
 XYZ=    4.1080    2.2116   -8.7463 Q=    0.4100 A=    0.0000 R=    0.0000 C=    0.0000
 XYZ=    2.8955    1.9063   -9.7966 Q=    0.4100 A=    0.0000 R=    0.0000 C=    0.0000
 XYZ=    2.5214    4.5817   -8.6998 Q=   -0.8200 A=    0.0000 R=    0.0000 C=    0.0000
 XYZ=    2.7984    5.0617   -7.8673 Q=    0.4100 A=    0.0000 R=    0.0000 C=    0.0000
 XYZ=    2.7294    3.6078   -8.6078 Q=    0.4100 A=    0.0000 R=    0.0000 C=    0.0000
 XYZ=    8.5540    5.0146    2.0355 Q=   -0.8200 A=    0.0000 R=    0.0000 C=    0.0000
 XYZ=    8.7610    4.6750    2.9531 Q=    0.4100 A=    0.0000 R=    0.0000 C=    0.0000
 XYZ=    7.8047    4.4808    1.6437 Q=    0.4100 A=    0.0000 R=    0.0000 C=    0.0000
 XYZ=   -2.4716   -6.8967   -7.3924 Q=   -0.8200 A=    0.0000 R=    0.0000 C=    0.0000
 XYZ=   -2.8940   -7.3074   -8.2004 Q=    0.4100 A=    0.0000 R=    0.0000 C=    0.0000
 XYZ=   -3.1670   -6.7567   -6.6876 Q=    0.4100 A=    0.0000 R=    0.0000 C=    0.0000
 XYZ=   -7.4587   -0.0468    5.4834 Q=   -0.8200 A=    0.0000 R=    0.0000 C=    0.0000
 XYZ=   -7.9494   -0.6140    4.8219 Q=    0.4100 A=    0.0000 R=    0.0000 C=    0.0000
 XYZ=   -6.5047   -0.3426    5.5332 Q=    0.4100 A=    0.0000 R=    0.0000 C=    0.0000
 XYZ=   -8.9049    4.6592   -1.2110 Q=   -0.8200 A=    0.0000 R=    0.0000 C=    0.0000
 XYZ=   -8.2080    5.1199   -1.7608 Q=    0.4100 A=    0.0000 R=    0.0000 C=    0.0000
 XYZ=   -8.5857    4.5802   -0.2665 Q=    0.4100 A=    0.0000 R=    0.0000 C=    0.0000
 XYZ=   -4.2115   -0.4746   -9.3395 Q=   -0.8200 A=    0.0000 R=    0.0000 C=    0.0000
 XYZ=   -4.8453   -1.0474   -8.8198 Q=    0.4100 A=    0.0000 R=    0.0000 C=    0.0000
 XYZ=   -4.5897   -0.2988  -10.2484 Q=    0.4100 A=    0.0000 R=    0.0000 C=    0.0000
 XYZ=   -7.9874   -5.8775    0.9953 Q=   -0.8200 A=    0.0000 R=    0.0000 C=    0.0000
 XYZ=   -8.8380   -5.9925    0.4822 Q=    0.4100 A=    0.0000 R=    0.0000 C=    0.0000
 XYZ=   -7.5418   -5.0271    0.7154 Q=    0.4100 A=    0.0000 R=    0.0000 C=    0.0000
 XYZ=   -5.4076   -8.1244   -0.9629 Q=   -0.8200 A=    0.0000 R=    0.0000 C=    0.0000
 XYZ=   -5.9447   -8.1327   -0.1193 Q=    0.4100 A=    0.0000 R=    0.0000 C=    0.0000
 XYZ=   -5.4836   -9.0131   -1.4151 Q=    0.4100 A=    0.0000 R=    0.0000 C=    0.0000
 XYZ=    1.3411   11.4051   -0.3582 Q=   -0.8200 A=    0.0000 R=    0.0000 C=    0.0000
 XYZ=    2.2088   11.9003   -0.4024 Q=    0.4100 A=    0.0000 R=    0.0000 C=    0.0000
 XYZ=    1.3253   10.6970   -1.0641 Q=    0.4100 A=    0.0000 R=    0.0000 C=    0.0000
 XYZ=   -6.6343   -5.3285    4.7383 Q=   -0.8200 A=    0.0000 R=    0.0000 C=    0.0000
 XYZ=   -7.5061   -5.3561    4.2492 Q=    0.4100 A=    0.0000 R=    0.0000 C=    0.0000
 XYZ=   -6.2433   -4.4106    4.6707 Q=    0.4100 A=    0.0000 R=    0.0000 C=    0.0000
 XYZ=   -1.0395   -5.8380    7.9018 Q=   -0.8200 A=    0.0000 R=    0.0000 C=    0.0000
 XYZ=   -0.2641   -5.2533    8.1407 Q=    0.4100 A=    0.0000 R=    0.0000 C=    0.0000
 XYZ=   -1.8879   -5.3143    7.9789 Q=    0.4100 A=    0.0000 R=    0.0000 C=    0.0000
 XYZ=    6.4522   -7.1442   -1.7525 Q=   -0.8200 A=    0.0000 R=    0.0000 C=    0.0000
 XYZ=    7.2253   -7.7206   -1.4878 Q=    0.4100 A=    0.0000 R=    0.0000 C=    0.0000
 XYZ=    6.7842   -6.3641   -2.2828 Q=    0.4100 A=    0.0000 R=    0.0000 C=    0.0000
 XYZ=    5.5897    2.6477    7.3435 Q=   -0.8200 A=    0.0000 R=    0.0000 C=    0.0000
 XYZ=    6.3670    3.0213    6.8373 Q=    0.4100 A=    0.0000 R=    0.0000 C=    0.0000
 XYZ=    5.2594    3.3285    7.9973 Q=    0.4100 A=    0.0000 R=    0.0000 C=    0.0000
 XYZ=   -1.9548   -0.8688  -10.4180 Q=   -0.8200 A=    0.0000 R=    0.0000 C=    0.0000
 XYZ=   -1.7900   -1.8357  -10.6131 Q=    0.4100 A=    0.0000 R=    0.0000 C=    0.0000
 XYZ=   -2.7804   -0.7772   -9.8611 Q=    0.4100 A=    0.0000 R=    0.0000 C=    0.0000
 XYZ=   -5.7309   -7.9172   -4.4635 Q=   -0.8200 A=    0.0000 R=    0.0000 C=    0.0000
 XYZ=   -5.8471   -6.9440   -4.2649 Q=    0.4100 A=    0.0000 R=    0.0000 C=    0.0000
 XYZ=   -6.5940   -8.2941   -4.7997 Q=    0.4100 A=    0.0000 R=    0.0000 C=    0.0000
 XYZ=    8.1823   -6.4227    1.3864 Q=   -0.8200 A=    0.0000 R=    0.0000 C=    0.0000
 XYZ=    8.8260   -5.6659    1.2724 Q=    0.4100 A=    0.0000 R=    0.0000 C=    0.0000
 XYZ=    7.2663   -6.0585    1.5550 Q=    0.4100 A=    0.0000 R=    0.0000 C=    0.0000
 XYZ=   -0.7197   -6.2176   -8.9123 Q=   -0.8200 A=    0.0000 R=    0.0000 C=    0.0000
 XYZ=   -0.1707   -5.4386   -8.6095 Q=    0.4100 A=    0.0000 R=    0.0000 C=    0.0000
 XYZ=   -1.4951   -6.3399   -8.2927 Q=    0.4100 A=    0.0000 R=    0.0000 C=    0.0000
 XYZ=    0.6717    5.1738   -9.6550 Q=   -0.8200 A=    0.0000 R=    0.0000 C=    0.0000
 XYZ=   -0.0656    5.0668   -8.9880 Q=    0.4100 A=    0.0000 R=    0.0000 C=    0.0000
 XYZ=    1.5466    4.9562   -9.2224 Q=    0.4100 A=    0.0000 R=    0.0000 C=    0.0000
 XYZ=    8.4193   -4.4480   -0.8768 Q=   -0.8200 A=    0.0000 R=    0.0000 C=    0.0000
 XYZ=    9.3726   -4.3603   -1.1658 Q=    0.4100 A=    0.0000 R=    0.0000 C=    0.0000
 XYZ=    7.8593   -4.7288   -1.6563 Q=    0.4100 A=    0.0000 R=    0.0000 C=    0.0000
 XYZ=    9.8361    0.6935    1.1051 Q=   -0.8200 A=    0.0000 R=    0.0000 C=    0.0000
 XYZ=   10.1322    0.6887    2.0603 Q=    0.4100 A=    0.0000 R=    0.0000 C=    0.0000
 XYZ=    8.8810    0.4017    1.0509 Q=    0.4100 A=    0.0000 R=    0.0000 C=    0.0000
 XYZ=   -7.7378    6.4843    2.5785 Q=   -0.8200 A=    0.0000 R=    0.0000 C=    0.0000
 XYZ=   -8.0428    6.2290    3.4960 Q=    0.4100 A=    0.0000 R=    0.0000 C=    0.0000
 XYZ=   -8.0499    5.7988    1.9207 Q=    0.4100 A=    0.0000 R=    0.0000 C=    0.0000
 XYZ=    8.6751    3.2083    4.5838 Q=   -0.8200 A=    0.0000 R=    0.0000 C=    0.0000
 XYZ=    8.1143    2.7727    3.8796 Q=    0.4100 A=    0.0000 R=    0.0000 C=    0.0000
 XYZ=    9.5135    2.6795    4.7164 Q=    0.4100 A=    0.0000 R=    0.0000 C=    0.0000
 XYZ=    5.6283    5.2059   -5.8116 Q=   -0.8200 A=    0.0000 R=    0.0000 C=    0.0000
 XYZ=    6.4285    5.7949   -5.6991 Q=    0.4100 A=    0.0000 R=    0.0000 C=    0.0000
 XYZ=    5.8642    4.4318   -6.3991 Q=    0.4100 A=    0.0000 R=    0.0000 C=    0.0000
 XYZ=   -5.7087    4.1530   -8.2926 Q=   -0.8200 A=    0.0000 R=    0.0000 C=    0.0000
 XYZ=   -5.2368    4.8277   -8.8601 Q=    0.4100 A=    0.0000 R=    0.0000 C=    0.0000
 XYZ=   -5.3443    3.2419   -8.4855 Q=    0.4100 A=    0.0000 R=    0.0000 C=    0.0000
 XYZ=    9.2007   -4.0441    1.1939 Q=   -0.8200 A=    0.0000 R=    0.0000 C=    0.0000
 XYZ=    8.5613   -3.7610    1.9088 Q=    0.4100 A=    0.0000 R=    0.0000 C=    0.0000
 XYZ=    8.7296   -4.0584    0.3119 Q=    0.4100 A=    0.0000 R=    0.0000 C=    0.0000
 XYZ=    4.4184   -4.8759   -8.5028 Q=   -0.8200 A=    0.0000 R=    0.0000 C=    0.0000
 XYZ=    5.2653   -4.8732   -9.0346 Q=    0.4100 A=    0.0000 R=    0.0000 C=    0.0000
 XYZ=    4.3328   -4.0111   -8.0080 Q=    0.4100 A=    0.0000 R=    0.0000 C=    0.0000
 XYZ=   -4.6882   -6.6715   -6.5097 Q=   -0.8200 A=    0.0000 R=    0.0000 C=    0.0000
 XYZ=   -5.3534   -5.9389   -6.3659 Q=    0.4100 A=    0.0000 R=    0.0000 C=    0.0000
 XYZ=   -4.7987   -7.3663   -5.7991 Q=    0.4100 A=    0.0000 R=    0.0000 C=    0.0000
 XYZ=    2.7487    3.5123    9.9983 Q=   -0.8200 A=    0.0000 R=    0.0000 C=    0.0000
 XYZ=    3.6543    3.7072    9.6214 Q=    0.4100 A=    0.0000 R=    0.0000 C=    0.0000
 XYZ=    2.1489    3.1808    9.2701 Q=    0.4100 A=    0.0000 R=    0.0000 C=    0.0000
 XYZ=   -9.8176   -0.4490    0.5771 Q=   -0.8200 A=    0.0000 R=    0.0000 C=    0.0000
 XYZ=   -9.7686    0.1237   -0.2412 Q=    0.4100 A=    0.0000 R=    0.0000 C=    0.0000
 XYZ=   -8.8930   -0.6336    0.9105 Q=    0.4100 A=    0.0000 R=    0.0000 C=    0.0000
 XYZ=   -6.7895    8.7277    2.2082 Q=   -0.8200 A=    0.0000 R=    0.0000 C=    0.0000
 XYZ=   -7.0140    7.7582    2.1094 Q=    0.4100 A=    0.0000 R=    0.0000 C=    0.0000
 XYZ=   -6.7092    8.9540    3.1789 Q=    0.4100 A=    0.0000 R=    0.0000 C=    0.0000
 XYZ=    8.9873   -0.4807   -2.1158 Q=   -0.8200 A=    0.0000 R=    0.0000 C=    0.0000
 XYZ=    8.5944    0.4145   -1.9053 Q=    0.4100 A=    0.0000 R=    0.0000 C=    0.0000
 XYZ=    9.5677   -0.7767   -1.3571 Q=    0.4100 A=    0.0000 R=    0.0000 C=    0.0000
 XYZ=   -6.3757   -4.9354   -6.2643 Q=   -0.8200 A=    0.0000 R=    0.0000 C=    0.0000
 XYZ=   -6.0362   -4.2051   -6.8572 Q=    0.4100 A=    0.0000 R=    0.0000 C=    0.0000
 XYZ=   -7.1946   -5.3408   -6.6706 Q=    0.4100 A=    0.0000 R=    0.0000 C=    0.0000
 XYZ=   -0.1945   -2.7565    9.7323 Q=   -0.8200 A=    0.0000 R=    0.0000 C=    0.0000
 XYZ=    0.3899   -3.4518    9.3140 Q=    0.4100 A=    0.0000 R=    0.0000 C=    0.0000
 XYZ=   -0.9925   -3.1960   10.1447 Q=    0.4100 A=    0.0000 R=    0.0000 C=    0.0000
 XYZ=    0.5309   -0.1902  -11.0960 Q=   -0.8200 A=    0.0000 R=    0.0000 C=    0.0000
 XYZ=    1.1099   -0.9573  -11.3724 Q=    0.4100 A=    0.0000 R=    0.0000 C=    0.0000
 XYZ=   -0.2493   -0.5330  -10.5728 Q=    0.4100 A=    0.0000 R=    0.0000 C=    0.0000
 XYZ=   -5.6404   -3.4033   -8.0168 Q=   -0.8200 A=    0.0000 R=    0.0000 C=    0.0000
 XYZ=   -5.3274   -4.0782   -8.6851 Q=    0.4100 A=    0.0000 R=    0.0000 C=    0.0000
 XYZ=   -6.5404   -3.0603   -8.2862 Q=    0.4100 A=    0.0000 R=    0.0000 C=    0.0000
 XYZ=   -8.4000   -1.6215    3.9118 Q=   -0.8200 A=    0.0000 R=    0.0000 C=    0.0000
 XYZ=   -8.2588   -1.2522    2.9933 Q=    0.4100 A=    0.0000 R=    0.0000 C=    0.0000
 XYZ=   -8.9378   -2.4625    3.8539 Q=    0.4100 A=    0.0000 R=    0.0000 C=    0.0000
 XYZ=    5.8624    5.7782    6.3457 Q=   -0.8200 A=    0.0000 R=    0.0000 C=    0.0000
 XYZ=    6.4591    6.5798    6.3071 Q=    0.4100 A=    0.0000 R=    0.0000 C=    0.0000
 XYZ=    6.4202    4.9490    6.3819 Q=    0.4100 A=    0.0000 R=    0.0000 C=    0.0000
 XYZ=   -3.0091   -4.7227    8.2580 Q=   -0.8200 A=    0.0000 R=    0.0000 C=    0.0000
 XYZ=   -3.5967   -5.5308    8.2147 Q=    0.4100 A=    0.0000 R=    0.0000 C=    0.0000
 XYZ=   -2.8588   -4.4708    9.2140 Q=    0.4100 A=    0.0000 R=    0.0000 C=    0.0000
 XYZ=    0.5813   10.6364   -4.0550 Q=   -0.8200 A=    0.0000 R=    0.0000 C=    0.0000
 XYZ=   -0.3261   10.7434   -4.4615 Q=    0.4100 A=    0.0000 R=    0.0000 C=    0.0000
 XYZ=    1.2448   10.4235   -4.7722 Q=    0.4100 A=    0.0000 R=    0.0000 C=    0.0000
 XYZ=    6.5053    0.1156   -8.3043 Q=   -0.8200 A=    0.0000 R=    0.0000 C=    0.0000
 XYZ=    6.8522    0.4577   -7.4310 Q=    0.4100 A=    0.0000 R=    0.0000 C=    0.0000
 XYZ=    5.5741   -0.2278   -8.1815 Q=    0.4100 A=    0.0000 R=    0.0000 C=    0.0000
 XYZ=   -2.5947  -10.3131   -0.1941 Q=   -0.8200 A=    0.0000 R=    0.0000 C=    0.0000
 XYZ=   -1.7162  -10.7391   -0.4105 Q=    0.4100 A=    0.0000 R=    0.0000 C=    0.0000
 XYZ=   -3.2831  -10.6153   -0.8536 Q=    0.4100 A=    0.0000 R=    0.0000 C=    0.0000
 XYZ=   -5.2878    5.8650    7.7243 Q=   -0.8200 A=    0.0000 R=    0.0000 C=    0.0000
 XYZ=   -5.7551    6.7470    7.6642 Q=    0.4100 A=    0.0000 R=    0.0000 C=    0.0000
 XYZ=   -4.3499    5.9613    7.3910 Q=    0.4100 A=    0.0000 R=    0.0000 C=    0.0000
 XYZ=   -3.8002   -7.8907    6.0702 Q=   -0.8200 A=    0.0000 R=    0.0000 C=    0.0000
 XYZ=   -4.1627   -7.4497    5.2492 Q=    0.4100 A=    0.0000 R=    0.0000 C=    0.0000
 XYZ=   -4.1061   -7.3902    6.8801 Q=    0.4100 A=    0.0000 R=    0.0000 C=    0.0000
 XYZ=   -1.6449   10.9985   -4.8464 Q=   -0.8200 A=    0.0000 R=    0.0000 C=    0.0000
 XYZ=   -2.0054   11.9122   -4.6583 Q=    0.4100 A=    0.0000 R=    0.0000 C=    0.0000
 XYZ=   -2.3186   10.3117   -4.5736 Q=    0.4100 A=    0.0000 R=    0.0000 C=    0.0000
 XYZ=   -6.8608   -8.0776    0.9783 Q=   -0.8200 A=    0.0000 R=    0.0000 C=    0.0000
 XYZ=   -7.0838   -7.1056    0.9039 Q=    0.4100 A=    0.0000 R=    0.0000 C=    0.0000
 XYZ=   -6.5937   -8.2872    1.9190 Q=    0.4100 A=    0.0000 R=    0.0000 C=    0.0000
 XYZ=   -1.7453   -9.0607   -6.9117 Q=   -0.8200 A=    0.0000 R=    0.0000 C=    0.0000
 XYZ=   -1.9315   -8.0889   -7.0563 Q=    0.4100 A=    0.0000 R=    0.0000 C=    0.0000
 XYZ=   -2.1806   -9.5949   -7.6365 Q=    0.4100 A=    0.0000 R=    0.0000 C=    0.0000
 XYZ=   -2.4796  -10.5515    2.2674 Q=   -0.8200 A=    0.0000 R=    0.0000 C=    0.0000
 XYZ=   -1.8981   -9.8214    2.6264 Q=    0.4100 A=    0.0000 R=    0.0000 C=    0.0000
 XYZ=   -2.5041  -10.4976    1.2691 Q=    0.4100 A=    0.0000 R=    0.0000 C=    0.0000
 XYZ=    1.1099   11.8558    1.9685 Q=   -0.8200 A=    0.0000 R=    0.0000 C=    0.0000
 XYZ=    0.8902   11.1500    2.6420 Q=    0.4100 A=    0.0000 R=    0.0000 C=    0.0000
 XYZ=    1.0850   11.4598    1.0505 Q=    0.4100 A=    0.0000 R=    0.0000 C=    0.0000
 XYZ=   -8.1103    5.6933    4.9618 Q=   -0.8200 A=    0.0000 R=    0.0000 C=    0.0000
 XYZ=   -7.5028    4.9009    5.0182 Q=    0.4100 A=    0.0000 R=    0.0000 C=    0.0000
 XYZ=   -7.6724    6.4806    5.3959 Q=    0.4100 A=    0.0000 R=    0.0000 C=    0.0000
 XYZ=    6.8371    0.9267    8.0502 Q=   -0.8200 A=    0.0000 R=    0.0000 C=    0.0000
 XYZ=    6.4181    1.7638    7.6983 Q=    0.4100 A=    0.0000 R=    0.0000 C=    0.0000
 XYZ=    7.6235    1.1623    8.6212 Q=    0.4100 A=    0.0000 R=    0.0000 C=    0.0000
 XYZ=    5.4033    2.1878   -8.4559 Q=   -0.8200 A=    0.0000 R=    0.0000 C=    0.0000
 XYZ=    6.0117    2.8579   -8.0307 Q=    0.4100 A=    0.0000 R=    0.0000 C=    0.0000
 XYZ=    5.8843    1.3168   -8.5553 Q=    0.4100 A=    0.0000 R=    0.0000 C=    0.0000
 XYZ=    7.3922    1.0051   -6.1298 Q=   -0.8200 A=    0.0000 R=    0.0000 C=    0.0000
 XYZ=    7.7938    1.8950   -5.9132 Q=    0.4100 A=    0.0000 R=    0.0000 C=    0.0000
 XYZ=    8.1081    0.3068   -6.1270 Q=    0.4100 A=    0.0000 R=    0.0000 C=    0.0000
 XYZ=   -0.0540   10.5379    5.8827 Q=   -0.8200 A=    0.0000 R=    0.0000 C=    0.0000
 XYZ=   -0.0636    9.6037    5.5262 Q=    0.4100 A=    0.0000 R=    0.0000 C=    0.0000
 XYZ=   -0.2902   11.1766    5.1503 Q=    0.4100 A=    0.0000 R=    0.0000 C=    0.0000
 XYZ=    4.5050    0.6544    9.0956 Q=   -0.8200 A=    0.0000 R=    0.0000 C=    0.0000
 XYZ=    5.4398    0.6111    8.7431 Q=    0.4100 A=    0.0000 R=    0.0000 C=    0.0000
 XYZ=    4.2985    1.5912    9.3783 Q=    0.4100 A=    0.0000 R=    0.0000 C=    0.0000
 XYZ=   -2.9707    2.7824  -11.2853 Q=   -0.8200 A=    0.0000 R=    0.0000 C=    0.0000
 XYZ=   -2.4241    3.0759  -10.5010 Q=    0.4100 A=    0.0000 R=    0.0000 C=    0.0000
 XYZ=   -2.7271    1.8435  -11.5286 Q=    0.4100 A=    0.0000 R=    0.0000 C=    0.0000
 XYZ=   -6.0448   -8.3773    3.1761 Q=   -0.8200 A=    0.0000 R=    0.0000 C=    0.0000
 XYZ=   -5.6258   -7.5731    3.5977 Q=    0.4100 A=    0.0000 R=    0.0000 C=    0.0000
 XYZ=   -5.4517   -9.1712    3.3105 Q=    0.4100 A=    0.0000 R=    0.0000 C=    0.0000
 XYZ=    9.5239    3.2853   -1.9160 Q=   -0.8200 A=    0.0000 R=    0.0000 C=    0.0000
 XYZ=    8.9227    2.5049   -1.7442 Q=    0.4100 A=    0.0000 R=    0.0000 C=    0.0000
 XYZ=    9.6768    3.7827   -1.0621 Q=    0.4100 A=    0.0000 R=    0.0000 C=    0.0000
 XYZ=    7.2969    3.9249    6.4773 Q=   -0.8200 A=    0.0000 R=    0.0000 C=    0.0000
 XYZ=    7.8641    3.5996    5.7207 Q=    0.4100 A=    0.0000 R=    0.0000 C=    0.0000
 XYZ=    7.8532    3.9933    7.3055 Q=    0.4100 A=    0.0000 R=    0.0000 C=    0.0000
 XYZ=   -2.2726    5.9564    9.9467 Q=   -0.8200 A=    0.0000 R=    0.0000 C=    0.0000
 XYZ=   -2.3908    6.9072    9.6603 Q=    0.4100 A=    0.0000 R=    0.0000 C=    0.0000
 XYZ=   -1.8028    5.4470    9.2257 Q=    0.4100 A=    0.0000 R=    0.0000 C=    0.0000
 XYZ=    3.4101   -7.0740   -8.5287 Q=   -0.8200 A=    0.0000 R=    0.0000 C=    0.0000
 XYZ=    3.7132   -6.1815   -8.1947 Q=    0.4100 A=    0.0000 R=    0.0000 C=    0.0000
 XYZ=    4.2059   -7.6183   -8.7944 Q=    0.4100 A=    0.0000 R=    0.0000 C=    0.0000
 XYZ=  -10.1855    1.1905    2.2829 Q=   -0.8200 A=    0.0000 R=    0.0000 C=    0.0000
 XYZ=   -9.2782    1.5096    2.5568 Q=    0.4100 A=    0.0000 R=    0.0000 C=    0.0000
 XYZ=  -10.0914    0.4466    1.6212 Q=    0.4100 A=    0.0000 R=    0.0000 C=    0.0000
 XYZ=   -3.1624   11.7059    1.5826 Q=   -0.8200 A=    0.0000 R=    0.0000 C=    0.0000
 XYZ=   -4.0056   11.8044    2.1112 Q=    0.4100 A=    0.0000 R=    0.0000 C=    0.0000
 XYZ=   -3.3807   11.3696    0.6665 Q=    0.4100 A=    0.0000 R=    0.0000 C=    0.0000
 XYZ=   -2.7567    6.2176   -8.9052 Q=   -0.8200 A=    0.0000 R=    0.0000 C=    0.0000
 XYZ=   -2.3447    6.9142   -9.4926 Q=    0.4100 A=    0.0000 R=    0.0000 C=    0.0000
 XYZ=   -3.4162    5.6834   -9.4339 Q=    0.4100 A=    0.0000 R=    0.0000 C=    0.0000
 XYZ=   -6.4521    3.6665    7.2652 Q=   -0.8200 A=    0.0000 R=    0.0000 C=    0.0000
 XYZ=   -6.4224    3.2309    8.1649 Q=    0.4100 A=    0.0000 R=    0.0000 C=    0.0000
 XYZ=   -6.1182    4.6062    7.3388 Q=    0.4100 A=    0.0000 R=    0.0000 C=    0.0000
 XYZ=    7.4522    7.9956    0.4382 Q=   -0.8200 A=    0.0000 R=    0.0000 C=    0.0000
 XYZ=    7.9992    8.8189    0.5897 Q=    0.4100 A=    0.0000 R=    0.0000 C=    0.0000
 XYZ=    7.2869    7.5397    1.3127 Q=    0.4100 A=    0.0000 R=    0.0000 C=    0.0000
 XYZ=    4.2514   -1.3914  -10.6314 Q=   -0.8200 A=    0.0000 R=    0.0000 C=    0.0000
 XYZ=    4.2220   -1.2868   -9.6373 Q=    0.4100 A=    0.0000 R=    0.0000 C=    0.0000
 XYZ=    5.0540   -1.9310  -10.8861 Q=    0.4100 A=    0.0000 R=    0.0000 C=    0.0000
 XYZ=   -4.4719   11.1368   -0.2998 Q=   -0.8200 A=    0.0000 R=    0.0000 C=    0.0000
 XYZ=   -4.7044   11.8384   -0.9734 Q=    0.4100 A=    0.0000 R=    0.0000 C=    0.0000
 XYZ=   -5.2747   10.9344    0.2611 Q=    0.4100 A=    0.0000 R=    0.0000 C=    0.0000
 XYZ=   -9.4997    3.2185   -4.5909 Q=   -0.8200 A=    0.0000 R=    0.0000 C=    0.0000
 XYZ=   -9.6403    3.1246   -3.6052 Q=    0.4100 A=    0.0000 R=    0.0000 C=    0.0000
 XYZ=  -10.0772    2.5605   -5.0741 Q=    0.4100 A=    0.0000 R=    0.0000 C=    0.0000
 XYZ=   -6.2523   10.7354    1.1460 Q=   -0.8200 A=    0.0000 R=    0.0000 C=    0.0000
 XYZ=   -7.0243   10.9463    0.5463 Q=    0.4100 A=    0.0000 R=    0.0000 C=    0.0000
 XYZ=   -6.3407    9.7991    1.4861 Q=    0.4100 A=    0.0000 R=    0.0000 C=    0.0000
 XYZ=    8.2716    5.2181   -2.9747 Q=   -0.8200 A=    0.0000 R=    0.0000 C=    0.0000
 XYZ=    8.6997    4.4594   -2.4836 Q=    0.4100 A=    0.0000 R=    0.0000 C=    0.0000
 XYZ=    8.3109    6.0438   -2.4120 Q=    0.4100 A=    0.0000 R=    0.0000 C=    0.0000
 XYZ=    4.8599    6.4205    8.6224 Q=   -0.8200 A=    0.0000 R=    0.0000 C=    0.0000
 XYZ=    5.6808    6.7604    9.0814 Q=    0.4100 A=    0.0000 R=    0.0000 C=    0.0000
 XYZ=    5.0827    6.1764    7.6786 Q=    0.4100 A=    0.0000 R=    0.0000 C=    0.0000
 XYZ=   -5.4247   -9.9531   -3.1632 Q=   -0.8200 A=    0.0000 R=    0.0000 C=    0.0000
 XYZ=   -6.3836  -10.2242   -3.0795 Q=    0.4100 A=    0.0000 R=    0.0000 C=    0.0000
 XYZ=   -5.3571   -9.1422   -3.7446 Q=    0.4100 A=    0.0000 R=    0.0000 C=    0.0000
 XYZ=    8.2344    7.4018   -1.7506 Q=   -0.8200 A=    0.0000 R=    0.0000 C=    0.0000
 XYZ=    7.3591    7.7074   -2.1256 Q=    0.4100 A=    0.0000 R=    0.0000 C=    0.0000
 XYZ=    8.1614    7.3219   -0.7565 Q=    0.4100 A=    0.0000 R=    0.0000 C=    0.0000
 XYZ=   -4.1614   10.2010    4.0270 Q=   -0.8200 A=    0.0000 R=    0.0000 C=    0.0000
 XYZ=   -3.6789   10.4738    4.8594 Q=    0.4100 A=    0.0000 R=    0.0000 C=    0.0000
 XYZ=   -4.6004   11.0015    3.6188 Q=    0.4100 A=    0.0000 R=    0.0000 C=    0.0000
 XYZ=    2.3370    1.6387  -11.1106 Q=   -0.8200 A=    0.0000 R=    0.0000 C=    0.0000
 XYZ=    2.0212    2.5463  -11.3875 Q=    0.4100 A=    0.0000 R=    0.0000 C=    0.0000
 XYZ=    1.5658    1.0019  -11.1146 Q=    0.4100 A=    0.0000 R=    0.0000 C=    0.0000
 XYZ=    4.7838    4.0684    9.0277 Q=   -0.8200 A=    0.0000 R=    0.0000 C=    0.0000
 XYZ=    5.2977    3.9779    9.8807 Q=    0.4100 A=    0.0000 R=    0.0000 C=    0.0000
 XYZ=    4.6872    5.0369    8.7979 Q=    0.4100 A=    0.0000 R=    0.0000 C=    0.0000
 XYZ=   -8.0585    1.5537    7.1785 Q=   -0.8200 A=    0.0000 R=    0.0000 C=    0.0000
 XYZ=   -7.9224    0.7638    6.5805 Q=    0.4100 A=    0.0000 R=    0.0000 C=    0.0000
 XYZ=   -7.3675    2.2477    6.9764 Q=    0.4100 A=    0.0000 R=    0.0000 C=    0.0000
 XYZ=    0.7299   -3.6972  -10.3525 Q=   -0.8200 A=    0.0000 R=    0.0000 C=    0.0000
 XYZ=    1.4062   -2.9988  -10.5868 Q=    0.4100 A=    0.0000 R=    0.0000 C=    0.0000
 XYZ=    1.0586   -4.5930  -10.6519 Q=    0.4100 A=    0.0000 R=    0.0000 C=    0.0000
 XYZ=  -10.1921    2.8999   -2.2269 Q=   -0.8200 A=    0.0000 R=    0.0000 C=    0.0000
 XYZ=  -11.1799    2.8618   -2.3782 Q=    0.4100 A=    0.0000 R=    0.0000 C=    0.0000
 XYZ=   -9.9594    3.7518   -1.7576 Q=    0.4100 A=    0.0000 R=    0.0000 C=    0.0000
 XYZ=   -0.6783  -11.4556   -0.5474 Q=   -0.8200 A=    0.0000 R=    0.0000 C=    0.0000
 XYZ=   -0.9014  -12.4269   -0.6301 Q=    0.4100 A=    0.0000 R=    0.0000 C=    0.0000
 XYZ=    0.3115  -11.3477   -0.4547 Q=    0.4100 A=    0.0000 R=    0.0000 C=    0.0000
 XYZ=    1.1274   -7.7615   -9.3356 Q=   -0.8200 A=    0.0000 R=    0.0000 C=    0.0000
 XYZ=    0.3920   -7.3106   -8.8298 Q=    0.4100 A=    0.0000 R=    0.0000 C=    0.0000
 XYZ=    1.9959   -7.6160   -8.8616 Q=    0.4100 A=    0.0000 R=    0.0000 C=    0.0000
 XYZ=   -2.9549    0.4466  -12.0435 Q=   -0.8200 A=    0.0000 R=    0.0000 C=    0.0000
 XYZ=   -2.5417   -0.1135  -11.3254 Q=    0.4100 A=    0.0000 R=    0.0000 C=    0.0000
 XYZ=   -3.9488    0.3381  -12.0204 Q=    0.4100 A=    0.0000 R=    0.0000 C=    0.0000
 XYZ=    0.4336   -1.1805   11.4992 Q=   -0.8200 A=    0.0000 R=    0.0000 C=    0.0000
 XYZ=    0.3197   -1.7193   10.6645 Q=    0.4100 A=    0.0000 R=    0.0000 C=    0.0000
 XYZ=   -0.4534   -0.8181   11.7856 Q=    0.4100 A=    0.0000 R=    0.0000 C=    0.0000
 XYZ=   -1.4330   -3.1148  -11.2790 Q=   -0.8200 A=    0.0000 R=    0.0000 C=    0.0000
 XYZ=   -0.5541   -3.2764  -10.8302 Q=    0.4100 A=    0.0000 R=    0.0000 C=    0.0000
 XYZ=   -1.2995   -3.0772  -12.2694 Q=    0.4100 A=    0.0000 R=    0.0000 C=    0.0000
 XYZ=   -6.6284   -5.5780    7.3549 Q=   -0.8200 A=    0.0000 R=    0.0000 C=    0.0000
 XYZ=   -6.4375   -5.3546    6.3990 Q=    0.4100 A=    0.0000 R=    0.0000 C=    0.0000
 XYZ=   -6.6577   -4.7365    7.8944 Q=    0.4100 A=    0.0000 R=    0.0000 C=    0.0000
 XYZ=   -6.4114    9.4569    4.6420 Q=   -0.8200 A=    0.0000 R=    0.0000 C=    0.0000
 XYZ=   -6.7709   10.3709    4.8301 Q=    0.4100 A=    0.0000 R=    0.0000 C=    0.0000
 XYZ=   -5.4288    9.5150    4.4658 Q=    0.4100 A=    0.0000 R=    0.0000 C=    0.0000
 XYZ=   -5.1283   -6.9154   -8.8638 Q=   -0.8200 A=    0.0000 R=    0.0000 C=    0.0000
 XYZ=   -4.3827   -7.4576   -9.2513 Q=    0.4100 A=    0.0000 R=    0.0000 C=    0.0000
 XYZ=   -4.9553   -6.7576   -7.8916 Q=    0.4100 A=    0.0000 R=    0.0000 C=    0.0000
 XYZ=   -0.4164   -7.6082    9.4100 Q=   -0.8200 A=    0.0000 R=    0.0000 C=    0.0000
 XYZ=   -0.7506   -7.0625    8.6416 Q=    0.4100 A=    0.0000 R=    0.0000 C=    0.0000
 XYZ=    0.5569   -7.4262    9.5497 Q=    0.4100 A=    0.0000 R=    0.0000 C=    0.0000
 XYZ=    1.5832    3.9032  -11.5787 Q=   -0.8200 A=    0.0000 R=    0.0000 C=    0.0000
 XYZ=    1.1047    4.2550  -10.7742 Q=    0.4100 A=    0.0000 R=    0.0000 C=    0.0000
 XYZ=    2.4190    4.4318  -11.7269 Q=    0.4100 A=    0.0000 R=    0.0000 C=    0.0000
 XYZ=   -0.6880  -10.8242   -5.9069 Q=   -0.8200 A=    0.0000 R=    0.0000 C=    0.0000
 XYZ=    0.1733  -10.4670   -5.5455 Q=    0.4100 A=    0.0000 R=    0.0000 C=    0.0000
 XYZ=   -1.2173  -10.0760   -6.3070 Q=    0.4100 A=    0.0000 R=    0.0000 C=    0.0000
 XYZ=   -8.6612   -5.8382    3.3912 Q=   -0.8200 A=    0.0000 R=    0.0000 C=    0.0000
 XYZ=   -8.3967   -5.9601    2.4345 Q=    0.4100 A=    0.0000 R=    0.0000 C=    0.0000
 XYZ=   -9.3154   -6.5492    3.6493 Q=    0.4100 A=    0.0000 R=    0.0000 C=    0.0000
 XYZ=   -4.9403   10.9899   -5.6633 Q=   -0.8200 A=    0.0000 R=    0.0000 C=    0.0000
 XYZ=   -4.3166   10.3597   -5.2007 Q=    0.4100 A=    0.0000 R=    0.0000 C=    0.0000
 XYZ=   -4.4239   11.5619   -6.3006 Q=    0.4100 A=    0.0000 R=    0.0000 C=    0.0000
 XYZ=   -9.1987    4.6541   -6.2849 Q=   -0.8200 A=    0.0000 R=    0.0000 C=    0.0000
 XYZ=   -8.6905    4.3390   -7.0864 Q=    0.4100 A=    0.0000 R=    0.0000 C=    0.0000
 XYZ=   -9.2625    3.9119   -5.6177 Q=    0.4100 A=    0.0000 R=    0.0000 C=    0.0000
 XYZ=   10.5477   -1.0489   -0.3415 Q=   -0.8200 A=    0.0000 R=    0.0000 C=    0.0000
 XYZ=   10.7725   -1.8530    0.2089 Q=    0.4100 A=    0.0000 R=    0.0000 C=    0.0000
 XYZ=   10.3970   -0.2647    0.2604 Q=    0.4100 A=    0.0000 R=    0.0000 C=    0.0000
 XYZ=    6.9150    3.8348   -7.3644 Q=   -0.8200 A=    0.0000 R=    0.0000 C=    0.0000
 XYZ=    7.3025    4.6942   -7.6980 Q=    0.4100 A=    0.0000 R=    0.0000 C=    0.0000
 XYZ=    7.6446    3.2645   -6.9871 Q=    0.4100 A=    0.0000 R=    0.0000 C=    0.0000
 XYZ=   10.1559    4.4351    0.0576 Q=   -0.8200 A=    0.0000 R=    0.0000 C=    0.0000
 XYZ=    9.5787    4.8250    0.7751 Q=    0.4100 A=    0.0000 R=    0.0000 C=    0.0000
 XYZ=   10.8900    5.0767   -0.1650 Q=    0.4100 A=    0.0000 R=    0.0000 C=    0.0000
 XYZ=   -3.3047    7.9844    9.0942 Q=   -0.8200 A=    0.0000 R=    0.0000 C=    0.0000
 XYZ=   -3.3489    7.2416    8.4261 Q=    0.4100 A=    0.0000 R=    0.0000 C=    0.0000
 XYZ=   -4.2316    8.2493    9.3599 Q=    0.4100 A=    0.0000 R=    0.0000 C=    0.0000
 XYZ=    8.5734   -7.7775   -0.4782 Q=   -0.8200 A=    0.0000 R=    0.0000 C=    0.0000
 XYZ=    8.3390   -7.2525    0.3400 Q=    0.4100 A=    0.0000 R=    0.0000 C=    0.0000
 XYZ=    9.1200   -8.5735   -0.2181 Q=    0.4100 A=    0.0000 R=    0.0000 C=    0.0000
 XYZ=    8.4165    7.4670    4.2398 Q=   -0.8200 A=    0.0000 R=    0.0000 C=    0.0000
 XYZ=    8.9633    6.6844    4.5374 Q=    0.4100 A=    0.0000 R=    0.0000 C=    0.0000
 XYZ=    8.0342    7.2816    3.3346 Q=    0.4100 A=    0.0000 R=    0.0000 C=    0.0000
 XYZ=   -4.6721  -10.4943    3.0868 Q=   -0.8200 A=    0.0000 R=    0.0000 C=    0.0000
 XYZ=   -5.0646  -11.3789    2.8350 Q=    0.4100 A=    0.0000 R=    0.0000 C=    0.0000
 XYZ=   -3.8043  -10.3659    2.6068 Q=    0.4100 A=    0.0000 R=    0.0000 C=    0.0000
 XYZ=   -8.2252    4.1231   -8.6211 Q=   -0.8200 A=    0.0000 R=    0.0000 C=    0.0000
 XYZ=   -8.5228    4.7654   -9.3275 Q=    0.4100 A=    0.0000 R=    0.0000 C=    0.0000
 XYZ=   -7.2370    4.2047   -8.4913 Q=    0.4100 A=    0.0000 R=    0.0000 C=    0.0000
 XYZ=   -6.8190    7.5618    5.6220 Q=   -0.8200 A=    0.0000 R=    0.0000 C=    0.0000
 XYZ=   -6.7767    8.4286    5.1250 Q=    0.4100 A=    0.0000 R=    0.0000 C=    0.0000
 XYZ=   -6.7980    7.7402    6.6057 Q=    0.4100 A=    0.0000 R=    0.0000 C=    0.0000
 XYZ=  -11.6825    0.2325   -2.4783 Q=   -0.8200 A=    0.0000 R=    0.0000 C=    0.0000
 XYZ=  -12.0550    1.1570   -2.5593 Q=    0.4100 A=    0.0000 R=    0.0000 C=    0.0000
 XYZ=  -10.7882    0.2714   -2.0325 Q=    0.4100 A=    0.0000 R=    0.0000 C=    0.0000
 XYZ=    1.5283    5.5362   10.3823 Q=   -0.8200 A=    0.0000 R=    0.0000 C=    0.0000
 XYZ=    0.6436    5.4725   10.8441 Q=    0.4100 A=    0.0000 R=    0.0000 C=    0.0000
 XYZ=    2.0012    4.6573   10.4453 Q=    0.4100 A=    0.0000 R=    0.0000 C=    0.0000
 XYZ=  -10.1898    3.7267    2.2211 Q=   -0.8200 A=    0.0000 R=    0.0000 C=    0.0000
 XYZ=  -10.7845    4.1488    1.5368 Q=    0.4100 A=    0.0000 R=    0.0000 C=    0.0000
 XYZ=  -10.4402    2.7650    2.3324 Q=    0.4100 A=    0.0000 R=    0.0000 C=    0.0000
 XYZ=   -4.3291    4.8407   10.0902 Q=   -0.8200 A=    0.0000 R=    0.0000 C=    0.0000
 XYZ=   -3.4661    5.2974   10.3066 Q=    0.4100 A=    0.0000 R=    0.0000 C=    0.0000
 XYZ=   -4.6301    5.1130    9.1762 Q=    0.4100 A=    0.0000 R=    0.0000 C=    0.0000
 XYZ=    7.0558   -3.7098   -7.9051 Q=   -0.8200 A=    0.0000 R=    0.0000 C=    0.0000
 XYZ=    7.7987   -4.1687   -7.4178 Q=    0.4100 A=    0.0000 R=    0.0000 C=    0.0000
 XYZ=    6.8473   -4.2121   -8.7443 Q=    0.4100 A=    0.0000 R=    0.0000 C=    0.0000
 XYZ=    9.0628    5.3485   -5.0315 Q=   -0.8200 A=    0.0000 R=    0.0000 C=    0.0000
 XYZ=    8.5733    5.2876   -4.1616 Q=    0.4100 A=    0.0000 R=    0.0000 C=    0.0000
 XYZ=   10.0430    5.2314   -4.8713 Q=    0.4100 A=    0.0000 R=    0.0000 C=    0.0000
 XYZ=   -7.6119   -2.2190   -8.7514 Q=   -0.8200 A=    0.0000 R=    0.0000 C=    0.0000
 XYZ=   -8.0264   -1.3198   -8.8922 Q=    0.4100 A=    0.0000 R=    0.0000 C=    0.0000
 XYZ=   -7.4579   -2.6573   -9.6370 Q=    0.4100 A=    0.0000 R=    0.0000 C=    0.0000
 XYZ=   -0.4362   13.6449   -0.6590 Q=   -0.8200 A=    0.0000 R=    0.0000 C=    0.0000
 XYZ=    0.0148   12.7536   -0.6106 Q=    0.4100 A=    0.0000 R=    0.0000 C=    0.0000
 XYZ=   -1.2180   13.6570   -0.0356 Q=    0.4100 A=    0.0000 R=    0.0000 C=    0.0000
 XYZ=    2.0008   -2.0970  -11.5328 Q=   -0.8200 A=    0.0000 R=    0.0000 C=    0.0000
 XYZ=    2.8602   -1.8929  -11.0639 Q=    0.4100 A=    0.0000 R=    0.0000 C=    0.0000
 XYZ=    2.1114   -1.9413  -12.5144 Q=    0.4100 A=    0.0000 R=    0.0000 C=    0.0000
 XYZ=   -3.6293  -11.3961   -2.5733 Q=   -0.8200 A=    0.0000 R=    0.0000 C=    0.0000
 XYZ=   -3.0835  -11.7069   -3.3515 Q=    0.4100 A=    0.0000 R=    0.0000 C=    0.0000
 XYZ=   -4.3569  -10.7913   -2.8969 Q=    0.4100 A=    0.0000 R=    0.0000 C=    0.0000
 XYZ=    8.9176   -5.1490   -4.4012 Q=   -0.8200 A=    0.0000 R=    0.0000 C=    0.0000
 XYZ=    8.7910   -4.8811   -5.3563 Q=    0.4100 A=    0.0000 R=    0.0000 C=    0.0000
 XYZ=    9.7478   -5.7000   -4.3168 Q=    0.4100 A=    0.0000 R=    0.0000 C=    0.0000
 XYZ=   -0.3063    3.0101   11.1535 Q=   -0.8200 A=    0.0000 R=    0.0000 C=    0.0000
 XYZ=    0.5217    2.8298   11.6844 Q=    0.4100 A=    0.0000 R=    0.0000 C=    0.0000
 XYZ=   -0.4461    3.9975   11.0792 Q=    0.4100 A=    0.0000 R=    0.0000 C=    0.0000
 XYZ=   11.4048   -2.9685    1.1225 Q=   -0.8200 A=    0.0000 R=    0.0000 C=    0.0000
 XYZ=   10.4994   -3.3647    1.2754 Q=    0.4100 A=    0.0000 R=    0.0000 C=    0.0000
 XYZ=   11.9717   -3.6182    0.6160 Q=    0.4100 A=    0.0000 R=    0.0000 C=    0.0000
 XYZ=    9.5140    5.4841    4.9935 Q=   -0.8200 A=    0.0000 R=    0.0000 C=    0.0000
 XYZ=    9.2526    4.5442    4.7735 Q=    0.4100 A=    0.0000 R=    0.0000 C=    0.0000
 XYZ=    9.7151    5.5540    5.9706 Q=    0.4100 A=    0.0000 R=    0.0000 C=    0.0000
 XYZ=   -2.2604   -3.8454   10.5055 Q=   -0.8200 A=    0.0000 R=    0.0000 C=    0.0000
 XYZ=   -2.2324   -4.7361   10.9594 Q=    0.4100 A=    0.0000 R=    0.0000 C=    0.0000
 XYZ=   -2.6378   -3.1637   11.1323 Q=    0.4100 A=    0.0000 R=    0.0000 C=    0.0000
 XYZ=   -5.1183    3.5024  -11.4765 Q=   -0.8200 A=    0.0000 R=    0.0000 C=    0.0000
 XYZ=   -5.8661    2.8436  -11.3935 Q=    0.4100 A=    0.0000 R=    0.0000 C=    0.0000
 XYZ=   -4.2614    3.0711  -11.1942 Q=    0.4100 A=    0.0000 R=    0.0000 C=    0.0000
 XYZ=   11.2723    2.3192    0.4124 Q=   -0.8200 A=    0.0000 R=    0.0000 C=    0.0000
 XYZ=   10.5173    1.7337    0.7075 Q=    0.4100 A=    0.0000 R=    0.0000 C=    0.0000
 XYZ=   10.9891    3.2772    0.4588 Q=    0.4100 A=    0.0000 R=    0.0000 C=    0.0000
 XYZ=   10.7460   -0.2374   -3.7941 Q=   -0.8200 A=    0.0000 R=    0.0000 C=    0.0000
 XYZ=    9.9963   -0.3127   -3.1365 Q=    0.4100 A=    0.0000 R=    0.0000 C=    0.0000
 XYZ=   11.6197   -0.3167   -3.3141 Q=    0.4100 A=    0.0000 R=    0.0000 C=    0.0000
 XYZ=   -1.8470   -6.5006  -10.9674 Q=   -0.8200 A=    0.0000 R=    0.0000 C=    0.0000
 XYZ=   -2.5215   -5.7681  -11.0596 Q=    0.4100 A=    0.0000 R=    0.0000 C=    0.0000
 XYZ=   -1.2696   -6.3236  -10.1703 Q=    0.4100 A=    0.0000 R=    0.0000 C=    0.0000
 XYZ=   -4.6068    5.3239  -10.1258 Q=   -0.8200 A=    0.0000 R=    0.0000 C=    0.0000
 XYZ=   -5.1634    6.0615  -10.5082 Q=    0.4100 A=    0.0000 R=    0.0000 C=    0.0000
 XYZ=   -4.7590    4.4857  -10.6495 Q=    0.4100 A=    0.0000 R=    0.0000 C=    0.0000
 XYZ=   -0.7483    0.8235  -12.9438 Q=   -0.8200 A=    0.0000 R=    0.0000 C=    0.0000
 XYZ=   -0.2098    0.4629  -12.1822 Q=    0.4100 A=    0.0000 R=    0.0000 C=    0.0000
 XYZ=   -1.7222    0.7137  -12.7448 Q=    0.4100 A=    0.0000 R=    0.0000 C=    0.0000
 XYZ=   -0.5243    6.1555  -11.4997 Q=   -0.8200 A=    0.0000 R=    0.0000 C=    0.0000
 XYZ=   -0.9851    5.3945  -11.9564 Q=    0.4100 A=    0.0000 R=    0.0000 C=    0.0000
 XYZ=    0.0128    5.8072  -10.7314 Q=    0.4100 A=    0.0000 R=    0.0000 C=    0.0000
 XYZ=    4.1395    0.2204   11.4925 Q=   -0.8200 A=    0.0000 R=    0.0000 C=    0.0000
 XYZ=    4.2961    0.0508   10.5195 Q=    0.4100 A=    0.0000 R=    0.0000 C=    0.0000
 XYZ=    4.8554    0.8230   11.8453 Q=    0.4100 A=    0.0000 R=    0.0000 C=    0.0000
 XYZ=   -4.6961   -6.5791    8.1194 Q=   -0.8200 A=    0.0000 R=    0.0000 C=    0.0000
 XYZ=   -4.8959   -7.0603    8.9730 Q=    0.4100 A=    0.0000 R=    0.0000 C=    0.0000
 XYZ=   -5.5502   -6.2593    7.7092 Q=    0.4100 A=    0.0000 R=    0.0000 C=    0.0000
 XYZ=    1.6895   -5.8030  -10.6956 Q=   -0.8200 A=    0.0000 R=    0.0000 C=    0.0000
 XYZ=    1.3746   -6.5653  -10.1301 Q=    0.4100 A=    0.0000 R=    0.0000 C=    0.0000
 XYZ=    2.6789   -5.8703  -10.8247 Q=    0.4100 A=    0.0000 R=    0.0000 C=    0.0000
 XYZ=   -3.2878   -4.6638  -11.3154 Q=   -0.8200 A=    0.0000 R=    0.0000 C=    0.0000
 XYZ=   -3.2515   -4.8645  -12.2944 Q=    0.4100 A=    0.0000 R=    0.0000 C=    0.0000
 XYZ=   -2.7310   -3.8564  -11.1199 Q=    0.4100 A=    0.0000 R=    0.0000 C=    0.0000
 XYZ=  -10.1797    4.7483    4.4339 Q=   -0.8200 A=    0.0000 R=    0.0000 C=    0.0000
 XYZ=  -10.1289    4.3107    3.5362 Q=    0.4100 A=    0.0000 R=    0.0000 C=    0.0000
 XYZ=   -9.3268    5.2380    4.6147 Q=    0.4100 A=    0.0000 R=    0.0000 C=    0.0000
 XYZ=    9.1323   -0.4982   -5.9671 Q=   -0.8200 A=    0.0000 R=    0.0000 C=    0.0000
 XYZ=    9.6896   -0.2902   -5.1632 Q=    0.4100 A=    0.0000 R=    0.0000 C=    0.0000
 XYZ=    9.5186   -1.2870   -6.4454 Q=    0.4100 A=    0.0000 R=    0.0000 C=    0.0000
 XYZ=   10.2721   -4.1390    5.6827 Q=   -0.8200 A=    0.0000 R=    0.0000 C=    0.0000
 XYZ=    9.3184   -4.4285    5.6008 Q=    0.4100 A=    0.0000 R=    0.0000 C=    0.0000
 XYZ=   10.5921   -4.3059    6.6153 Q=    0.4100 A=    0.0000 R=    0.0000 C=    0.0000
 XYZ=   -4.9589   -9.9211    5.3798 Q=   -0.8200 A=    0.0000 R=    0.0000 C=    0.0000
 XYZ=   -4.6542  -10.1047    4.4452 Q=    0.4100 A=    0.0000 R=    0.0000 C=    0.0000
 XYZ=   -4.6107   -9.0314    5.6752 Q=    0.4100 A=    0.0000 R=    0.0000 C=    0.0000
 XYZ=    1.8058    2.6389   12.2197 Q=   -0.8200 A=    0.0000 R=    0.0000 C=    0.0000
 XYZ=    2.1309    2.9166   11.3157 Q=    0.4100 A=    0.0000 R=    0.0000 C=    0.0000
 XYZ=    2.0044    1.6691   12.3619 Q=    0.4100 A=    0.0000 R=    0.0000 C=    0.0000
 XYZ=  -11.6405   -1.9420    0.5976 Q=   -0.8200 A=    0.0000 R=    0.0000 C=    0.0000
 XYZ=  -10.8612   -1.3156    0.5796 Q=    0.4100 A=    0.0000 R=    0.0000 C=    0.0000
 XYZ=  -11.4012   -2.7567    1.1258 Q=    0.4100 A=    0.0000 R=    0.0000 C=    0.0000
 XYZ=    7.5130   -1.7126   -9.2386 Q=   -0.8200 A=    0.0000 R=    0.0000 C=    0.0000
 XYZ=    7.0675   -0.8934   -8.8772 Q=    0.4100 A=    0.0000 R=    0.0000 C=    0.0000
 XYZ=    7.3838   -2.4713   -8.6001 Q=    0.4100 A=    0.0000 R=    0.0000 C=    0.0000
 XYZ=   -9.0100   -8.6577    0.3751 Q=   -0.8200 A=    0.0000 R=    0.0000 C=    0.0000
 XYZ=   -9.4038   -7.7891    0.0744 Q=    0.4100 A=    0.0000 R=    0.0000 C=    0.0000
 XYZ=   -8.0757   -8.5061    0.6979 Q=    0.4100 A=    0.0000 R=    0.0000 C=    0.0000
 XYZ=    7.5521    6.6215   -6.0039 Q=   -0.8200 A=    0.0000 R=    0.0000 C=    0.0000
 XYZ=    8.2819    6.0686   -5.6016 Q=    0.4100 A=    0.0000 R=    0.0000 C=    0.0000
 XYZ=    7.5292    6.4745   -6.9928 Q=    0.4100 A=    0.0000 R=    0.0000 C=    0.0000
 XYZ=    7.6217    7.3589    6.3208 Q=   -0.8200 A=    0.0000 R=    0.0000 C=    0.0000
 XYZ=    7.8338    7.4403    5.3469 Q=    0.4100 A=    0.0000 R=    0.0000 C=    0.0000
 XYZ=    8.0016    8.1433    6.8112 Q=    0.4100 A=    0.0000 R=    0.0000 C=    0.0000
 XYZ=   10.4995   -4.4122   -1.9448 Q=   -0.8200 A=    0.0000 R=    0.0000 C=    0.0000
 XYZ=   10.1395   -4.0778   -2.8158 Q=    0.4100 A=    0.0000 R=    0.0000 C=    0.0000
 XYZ=   10.3852   -5.4045   -1.8958 Q=    0.4100 A=    0.0000 R=    0.0000 C=    0.0000
 XYZ=   -2.2633   13.6734    0.8044 Q=   -0.8200 A=    0.0000 R=    0.0000 C=    0.0000
 XYZ=   -2.7948   12.8681    1.0674 Q=    0.4100 A=    0.0000 R=    0.0000 C=    0.0000
 XYZ=   -2.8839   14.4315    0.6040 Q=    0.4100 A=    0.0000 R=    0.0000 C=    0.0000
 XYZ=   -2.2425  -12.3367   -4.2020 Q=   -0.8200 A=    0.0000 R=    0.0000 C=    0.0000
 XYZ=   -1.6500  -11.6283   -4.5855 Q=    0.4100 A=    0.0000 R=    0.0000 C=    0.0000
 XYZ=   -2.9943  -12.5211   -4.8351 Q=    0.4100 A=    0.0000 R=    0.0000 C=    0.0000
[...]
    39  O    0.000000   0.000000   0.000000   0.000000   0.000000  -0.000439
    40  H    0.000000   0.000000   0.000000   0.000000   0.000000   0.000019
    41  H    0.000000   0.000000   0.000000   0.000000   0.000000   0.000021
    42  O    0.000000   0.000000   0.000000   0.000000   0.000000  -0.000006
    43  H    0.000000   0.000000   0.000000   0.000000   0.000000   0.000000
    44  H    0.000000   0.000000   0.000000   0.000000   0.000000   0.000000
    45  O   -0.000160   0.003463   0.000101  -0.000022  -0.000001   0.000000
    46  H   -0.000015  -0.000063  -0.000002   0.000000   0.000000   0.000000
    47  H   -0.003036  -0.000422   0.000018   0.000018   0.000000   0.000000
    48  O   -0.000002   0.000002  -0.105199   0.002904  -0.002141   0.000000
    49  H    0.000000   0.000029   0.005114   0.003583  -0.001078   0.000000
    50  H    0.000000   0.000000   0.001114   0.000103  -0.000016   0.000000
              31         32         33         34         35         36
     1  C    0.000111   0.001207   0.000515   0.000015  -0.000133  -0.000081
     2  H    0.000000  -0.000001   0.000000   0.000000   0.000000   0.000000
     3  H    0.000000  -0.000004   0.000001   0.000000   0.000000   0.000000
     4  C   -0.000067  -0.000527   0.018762   0.000618  -0.005097   0.000701
     5  H    0.000000   0.000000  -0.000015   0.000000   0.000001   0.000000
     6  C   -0.000015  -0.000229  -0.035389  -0.000305   0.003858   0.002089
     7  H    0.000000   0.000000   0.001786   0.000046  -0.001217   0.000007
     8  O    0.000000  -0.000002   0.000759  -0.000031   0.000629  -0.001065
     9  O    0.000000   0.000000   0.000182   0.000057   0.000350  -0.092895
    10  H    0.000000   0.000000  -0.000128   0.000003  -0.000002   0.002130
    11  H    0.000000   0.000000  -0.000184   0.000003  -0.000009   0.050457
    12  O    0.000000   0.000000  -0.102865   0.000244   0.036000   0.000078
    13  H    0.000000   0.000000   0.005009  -0.000184   0.001175   0.000034
    14  H    0.000000   0.000000  -0.000227   0.000043  -0.001153   0.000009
    15  O   -0.001968   0.073603   0.000000   0.000000   0.000000   0.000000
    16  H   -0.000105  -0.000964   0.000000   0.000000   0.000000   0.000000
    17  H    0.000015  -0.001944   0.000000   0.000000   0.000000   0.000000
    18  O    0.000021   0.001795   0.000000   0.000000   0.000000   0.000000
    19  H    0.000000   0.000004   0.000000   0.000000   0.000000   0.000000
    20  H    0.000000  -0.000048   0.000000   0.000000   0.000000   0.000000
    21  O   -0.000066   0.003945   0.000000   0.000000   0.000000   0.000000
    22  H   -0.000212  -0.000298   0.000000   0.000000   0.000000   0.000000
    23  H   -0.000019  -0.000356   0.000000   0.000000   0.000000   0.000000
    24  O    0.000000   0.000000   0.000117  -0.000004   0.000011  -0.001224
    25  H    0.000000   0.000000  -0.000002   0.000000   0.000000   0.000045
    26  H    0.000000   0.000000  -0.000013   0.000000  -0.000009   0.000776
    27  O    0.000000   0.000000  -0.000013   0.000001   0.000001  -0.045414
    28  H    0.000000   0.000000   0.000001   0.000000   0.000000   0.001023
    29  H    0.000000   0.000000   0.000000   0.000000   0.000000   0.001782
    30  O    0.203945   0.130398   0.000000   0.000000   0.000000   0.000000
    31  H    0.170289  -0.003593   0.000000   0.000000   0.000000   0.000000
    32  H   -0.003593   0.230146   0.000000   0.000000   0.000000   0.000000
    33  O    0.000000   0.000000   9.043014   0.216935   0.145676  -0.000079
    34  H    0.000000   0.000000   0.216935   0.167324  -0.004753  -0.000018
    35  H    0.000000   0.000000   0.145676  -0.004753   0.199342  -0.000011
    36  O    0.000000   0.000000  -0.000079  -0.000018  -0.000011   8.877505
    37  H    0.000000   0.000000  -0.000002   0.000000   0.000000   0.199842
    38  H    0.000000   0.000000   0.000002   0.000000   0.000000   0.212983
    39  O    0.000023   0.000008   0.000000   0.000000   0.000000   0.000000
    40  H   -0.000001  -0.000055   0.000000   0.000000   0.000000   0.000000
    41  H    0.000000  -0.000006   0.000000   0.000000   0.000000   0.000000
    42  O    0.000000   0.000004  -0.000001   0.000000   0.000000   0.000000
    43  H    0.000000   0.000000   0.000000   0.000000   0.000000   0.000000
    44  H    0.000000   0.000000   0.000000   0.000000   0.000000   0.000000
    45  O    0.000000   0.000000  -0.000535   0.000122   0.001200  -0.000369
    46  H    0.000000   0.000000  -0.000022   0.000000  -0.000019   0.000000
    47  H    0.000000   0.000000  -0.000042   0.000001   0.000002   0.000029
    48  O    0.000000   0.000000   0.000000   0.000000   0.000000  -0.002854
    49  H    0.000000   0.000000   0.000000   0.000000   0.000000   0.002412
    50  H    0.000000   0.000000   0.000000   0.000000   0.000000   0.000040
              37         38         39         40         41         42
     1  C    0.000011  -0.000001   0.000073  -0.000129  -0.000005   0.000610
     2  H    0.000000   0.000000   0.000000   0.000000   0.000000   0.000000
     3  H    0.000000   0.000000   0.000000   0.000000   0.000000  -0.000002
     4  C   -0.000023  -0.000007   0.000019   0.000165   0.000003   0.001093
     5  H    0.000000   0.000000   0.000000   0.000000   0.000000  -0.000029
     6  C   -0.000062  -0.000003  -0.000044  -0.000015   0.000001  -0.000781
     7  H    0.000000   0.000000   0.000000   0.000000   0.000000  -0.000001
     8  O   -0.000002  -0.000007   0.000000   0.000000   0.000000  -0.000002
     9  O   -0.000113  -0.001172   0.000000   0.000000   0.000000   0.000000
    10  H   -0.000005   0.000014   0.000000   0.000000   0.000000   0.000000
    11  H   -0.001513  -0.000107   0.000000   0.000000   0.000000   0.000000
    12  O   -0.000010   0.000001   0.000000   0.000000   0.000000   0.000000
    13  H    0.000000   0.000000   0.000000   0.000000   0.000000   0.000000
    14  H    0.000000   0.000000   0.000000   0.000000   0.000000   0.000000
    15  O    0.000000   0.000000  -0.007851   0.005067  -0.000014   0.000255
    16  H    0.000000   0.000000  -0.002636   0.001599   0.000052   0.000008
    17  H    0.000000   0.000000   0.004339   0.000253  -0.000061  -0.000133
    18  O    0.000000   0.000000  -0.049624   0.033918   0.000853  -0.046469
    19  H    0.000000   0.000000   0.001414   0.000426  -0.000043   0.038044
    20  H    0.000000   0.000000   0.000062  -0.005408  -0.000002  -0.001942
    21  O    0.000000   0.000000   0.000009   0.000000   0.000000   0.000001
    22  H    0.000000   0.000000   0.000000   0.000000   0.000000   0.000000
    23  H    0.000000   0.000000   0.000000   0.000000   0.000000   0.000000
    24  O   -0.000034   0.000174   0.000000   0.000000   0.000000   0.000000
    25  H    0.000000  -0.000001   0.000000   0.000000   0.000000   0.000000
    26  H    0.000008   0.000041   0.000000   0.000000   0.000000   0.000000
    27  O    0.000248   0.000403   0.000000   0.000000   0.000000   0.000000
    28  H   -0.000157   0.000127   0.000000   0.000000   0.000000   0.000000
    29  H   -0.000062  -0.000019   0.000000   0.000000   0.000000   0.000000
    30  O    0.000000   0.000000  -0.000439   0.000019   0.000021  -0.000006
    31  H    0.000000   0.000000   0.000023  -0.000001   0.000000   0.000000
    32  H    0.000000   0.000000   0.000008  -0.000055  -0.000006   0.000004
    33  O   -0.000002   0.000002   0.000000   0.000000   0.000000  -0.000001
    34  H    0.000000   0.000000   0.000000   0.000000   0.000000   0.000000
    35  H    0.000000   0.000000   0.000000   0.000000   0.000000   0.000000
    36  O    0.199842   0.212983   0.000000   0.000000   0.000000   0.000000
    37  H    0.148361  -0.006284   0.000000   0.000000   0.000000   0.000000
    38  H   -0.006284   0.167186   0.000000   0.000000   0.000000   0.000000
    39  O    0.000000   0.000000   8.931038   0.137379   0.208174  -0.001804
    40  H    0.000000   0.000000   0.137379   0.247012  -0.005027   0.000845
    41  H    0.000000   0.000000   0.208174  -0.005027   0.174660  -0.000013
    42  O    0.000000   0.000000  -0.001804   0.000845  -0.000013   8.746132
    43  H    0.000000   0.000000  -0.000013   0.000055   0.000000   0.219240
    44  H    0.000000   0.000000  -0.000005   0.000002   0.000000   0.213329
    45  O   -0.000001   0.000006   0.000000   0.000000   0.000000   0.000000
    46  H    0.000000   0.000000   0.000000   0.000000   0.000000   0.000000
    47  H    0.000000  -0.000001   0.000000   0.000000   0.000000   0.000000
    48  O    0.000426   0.000088   0.000000   0.000000   0.000000   0.000000
    49  H   -0.000046  -0.000035   0.000000   0.000000   0.000000   0.000000
    50  H   -0.000002  -0.000001   0.000000   0.000000   0.000000   0.000000
              43         44         45         46         47         48
     1  C   -0.000051   0.000056  -0.000559   0.000009  -0.000003  -0.000409
     2  H    0.000000   0.000000   0.000001   0.000000   0.000000  -0.000001
     3  H    0.000000   0.000000   0.000000   0.000000   0.000000   0.000000
     4  C   -0.000044  -0.000218  -0.001836   0.000006  -0.000107  -0.000003
     5  H    0.000000   0.000002   0.000000   0.000000   0.000000   0.000000
     6  C    0.000070   0.000085   0.001139  -0.000182  -0.000405   0.000518
     7  H    0.000000   0.000000  -0.000036   0.000000   0.000000   0.000000
     8  O    0.000000   0.000000  -0.002076   0.000040   0.000806   0.000066
     9  O    0.000000   0.000000  -0.002828   0.000062   0.000576  -0.003003
    10  H    0.000000   0.000000   0.000144  -0.000002  -0.000034   0.000176
    11  H    0.000000   0.000000  -0.000045   0.000000  -0.000015  -0.000017
    12  O    0.000000   0.000000  -0.095485   0.000142   0.002097  -0.000001
    13  H    0.000000   0.000000   0.004628  -0.000139  -0.000500   0.000000
    14  H    0.000000   0.000000   0.036990  -0.001010  -0.000273   0.000000
    15  O   -0.000014  -0.000020   0.000000   0.000000   0.000000   0.000000
    16  H    0.000000   0.000000   0.000000   0.000000   0.000000   0.000000
    17  H    0.000008   0.000003   0.000000   0.000000   0.000000   0.000000
    18  O    0.000211   0.001253   0.000000   0.000000   0.000000   0.000000
    19  H   -0.002823   0.000134   0.000000   0.000000   0.000000   0.000000
    20  H    0.000146  -0.000032   0.000000   0.000000   0.000000   0.000000
    21  O    0.000000   0.000000   0.000014   0.000000   0.000000   0.000000
    22  H    0.000000   0.000000   0.000000   0.000000   0.000000   0.000000
    23  H    0.000000   0.000000   0.000000   0.000000   0.000000   0.000000
    24  O    0.000000   0.000000  -0.070198   0.000680   0.057496   0.000116
    25  H    0.000000   0.000000  -0.000160  -0.000015  -0.003036  -0.000002
    26  H    0.000000   0.000000   0.003463  -0.000063  -0.000422   0.000002
    27  O    0.000000   0.000000   0.000101  -0.000002   0.000018  -0.105199
    28  H    0.000000   0.000000  -0.000022   0.000000   0.000018   0.002904
    29  H    0.000000   0.000000  -0.000001   0.000000   0.000000  -0.002141
    30  O    0.000000   0.000000   0.000000   0.000000   0.000000   0.000000
    31  H    0.000000   0.000000   0.000000   0.000000   0.000000   0.000000
    32  H    0.000000   0.000000   0.000000   0.000000   0.000000   0.000000
    33  O    0.000000   0.000000  -0.000535  -0.000022  -0.000042   0.000000
    34  H    0.000000   0.000000   0.000122   0.000000   0.000001   0.000000
    35  H    0.000000   0.000000   0.001200  -0.000019   0.000002   0.000000
    36  O    0.000000   0.000000  -0.000369   0.000000   0.000029  -0.002854
    37  H    0.000000   0.000000  -0.000001   0.000000   0.000000   0.000426
    38  H    0.000000   0.000000   0.000006   0.000000  -0.000001   0.000088
    39  O   -0.000013  -0.000005   0.000000   0.000000   0.000000   0.000000
    40  H    0.000055   0.000002   0.000000   0.000000   0.000000   0.000000
    41  H    0.000000   0.000000   0.000000   0.000000   0.000000   0.000000
    42  O    0.219240   0.213329   0.000000   0.000000   0.000000   0.000000
    43  H    0.201701  -0.007903   0.000000   0.000000   0.000000   0.000000
    44  H   -0.007903   0.188279   0.000000   0.000000   0.000000   0.000000
    45  O    0.000000   0.000000   9.040093   0.204954   0.135917   0.000001
    46  H    0.000000   0.000000   0.204954   0.152517  -0.003209   0.000000
    47  H    0.000000   0.000000   0.135917  -0.003209   0.199776   0.000000
    48  O    0.000000   0.000000   0.000001   0.000000   0.000000   8.916633
    49  H    0.000000   0.000000   0.000000   0.000000   0.000000   0.168888
    50  H    0.000000   0.000000   0.000000   0.000000   0.000000   0.235727
              49         50
     1  C    0.000074  -0.000002
     2  H    0.000000   0.000000
     3  H    0.000000   0.000000
     4  C   -0.000182   0.000008
     5  H    0.000000   0.000000
     6  C    0.000114  -0.000007
     7  H    0.000000   0.000000
     8  O    0.000006  -0.000001
     9  O   -0.002977   0.000050
    10  H    0.000087   0.000001
    11  H    0.000042   0.000004
    12  O    0.000001   0.000000
    13  H    0.000000   0.000000
    14  H    0.000000   0.000000
    15  O    0.000000   0.000000
    16  H    0.000000   0.000000
    17  H    0.000000   0.000000
    18  O    0.000000   0.000000
    19  H    0.000000   0.000000
    20  H    0.000000   0.000000
    21  O    0.000000   0.000000
    22  H    0.000000   0.000000
    23  H    0.000000   0.000000
    24  O    0.000083  -0.000002
    25  H    0.000000   0.000000
    26  H    0.000029   0.000000
    27  O    0.005114   0.001114
    28  H    0.003583   0.000103
    29  H   -0.001078  -0.000016
    30  O    0.000000   0.000000
    31  H    0.000000   0.000000
    32  H    0.000000   0.000000
    33  O    0.000000   0.000000
    34  H    0.000000   0.000000
    35  H    0.000000   0.000000
    36  O    0.002412   0.000040
    37  H   -0.000046  -0.000002
    38  H   -0.000035  -0.000001
    39  O    0.000000   0.000000
    40  H    0.000000   0.000000
    41  H    0.000000   0.000000
    42  O    0.000000   0.000000
    43  H    0.000000   0.000000
    44  H    0.000000   0.000000
    45  O    0.000000   0.000000
    46  H    0.000000   0.000000
    47  H    0.000000   0.000000
    48  O    0.168888   0.235727
    49  H    0.211932  -0.008029
    50  H   -0.008029   0.184652
 Mulliken charges:
               1
     1  C   -0.459191
     2  H    0.240170
     3  H    0.240233
     4  C   -0.112106
     5  H    0.235349
     6  C    0.126082
     7  H    0.240022
     8  O   -0.455792
     9  O   -1.307280
    10  H    0.622977
    11  H    0.646265
    12  O   -1.191508
    13  H    0.512935
    14  H    0.624105
    15  O   -1.162208
    16  H    0.575834
    17  H    0.612371
    18  O   -1.207697
    19  H    0.638992
    20  H    0.571322
    21  O   -1.060202
    22  H    0.597566
    23  H    0.451646
    24  O   -1.278458
    25  H    0.628322
    26  H    0.675900
    27  O   -1.340653
    28  H    0.653636
    29  H    0.659177
    30  O   -1.213888
    31  H    0.631642
    32  H    0.566916
    33  O   -1.293243
    34  H    0.619885
    35  H    0.624160
    36  O   -1.207935
    37  H    0.659419
    38  H    0.626610
    39  O   -1.220121
    40  H    0.583897
    41  H    0.621409
    42  O   -1.168377
    43  H    0.589417
    44  H    0.605037
    45  O   -1.254626
    46  H    0.646252
    47  H    0.611312
    48  O   -1.211916
    49  H    0.619984
    50  H    0.586361
 Sum of Mulliken charges =   0.00000
 Mulliken charges with hydrogens summed into heavy atoms:
               1
     1  C    0.021212
     4  C    0.123242
     6  C    0.366104
     8  O   -0.455792
     9  O   -0.038038
    12  O   -0.054468
    15  O    0.025997
    18  O    0.002617
    21  O   -0.010989
    24  O    0.025763
    27  O   -0.027841
    30  O   -0.015330
    33  O   -0.049198
    36  O    0.078093
    39  O   -0.014815
    42  O    0.026076
    45  O    0.002938
    48  O   -0.005571
 Electronic spatial extent (au):  <R**2>=          14169.3092
 Charge=              0.0000 electrons
 Dipole moment (field-independent basis, Debye):
    X=              5.6336    Y=              4.4217    Z=             -1.9294  Tot=              7.4169
 Quadrupole moment (field-independent basis, Debye-Ang):
   XX=            -21.6945   YY=           -133.2358   ZZ=           -126.0590
   XY=             32.7419   XZ=              2.1990   YZ=            -17.8958
 Traceless Quadrupole moment (field-independent basis, Debye-Ang):
   XX=             71.9686   YY=            -39.5727   ZZ=            -32.3958
   XY=             32.7419   XZ=              2.1990   YZ=            -17.8958
 Octapole moment (field-independent basis, Debye-Ang**2):
  XXX=              4.5531  YYY=           -114.2987  ZZZ=            115.6312  XYY=            189.6056
  XXY=            275.5983  XXZ=            143.3296  XZZ=             77.9918  YZZ=             59.2455
  YYZ=            -95.7809  XYZ=             28.8954
 Hexadecapole moment (field-independent basis, Debye-Ang**3):
 XXXX=          -6574.1989 YYYY=          -3231.6780 ZZZZ=          -1913.3463 XXXY=            884.5976
 XXXZ=           1292.5128 YYYX=            473.9309 YYYZ=           -212.5298 ZZZX=           -476.5897
 ZZZY=           -112.9027 XXYY=           -978.8054 XXZZ=          -2718.4860 YYZZ=           -707.8755
 XXYZ=           -530.3046 YYXZ=            -65.2757 ZZXY=             95.0527
 N-N= 1.065034009461D+03 E-N=-6.097122236453D+03  KE= 1.249366916139D+03
 Leave Link  601 at Fri Sep 14 18:40:45 2018, MaxMem=    33554432 cpu:         2.1
 (Enter /usr/local/pacerepov1/gaussian/G09D01LINDA/g09/l9999.exe)

 Test job not archived.
 1\1\GINC-RICH133-B17-29-L\SP\RLC-wPBE TD-FC\6-31+G(d)\C3H32O15\ROOT\14
 -Sep-2018\0\\#p td=(nstates=15)/6-31+g(d) lc-wpbe charge\\Acroleina in
  Water\\0,1\C,0,0.485154,0.480443,-1.430142\H,0,1.461403,0.187773,-1.0
 55732\H,0,0.429244,0.878853,-2.437062\C,0,-0.605127,0.346563,-0.658432
 \H,0,-1.591686,0.632893,-1.012412\C,0,-0.508516,-0.199107,0.712798\H,0
 ,-1.458487,-0.272107,1.272438\O,0,0.544883,-0.561317,1.236519\O,0,1.66
 3547,-2.765032,2.220453\H,0,1.239207,-2.132732,1.572243\H,0,1.087157,-
 3.576012,2.320833\O,0,-0.547513,-0.016582,3.622213\H,0,-0.199673,-0.15
 0052,2.694203\H,0,0.177557,-0.215182,4.281663\O,0,0.375517,4.772068,-1
 .495447\H,0,0.573067,5.489958,-2.162987\H,0,-0.566393,4.866758,-1.1730
 87\O,0,-1.804213,4.976748,-0.829357\H,0,-2.653753,4.593368,-1.191747\H
 ,0,-1.992613,5.450158,0.031093\O,0,3.260297,2.615178,-0.180537\H,0,3.0
 57437,3.574198,-0.378507\H,0,2.571677,2.032838,-0.612627\O,0,2.994957,
 -1.743912,3.900673\H,0,3.774867,-1.225622,3.549693\H,0,2.475457,-2.123
 632,3.135183\O,0,3.121577,-4.238002,1.252673\H,0,2.468337,-3.570122,1.
 609443\H,0,3.401347,-4.855892,1.987493\O,0,2.853817,5.045928,-0.857917
 \H,0,3.422437,5.559168,-1.500757\H,0,1.906637,5.044158,-1.178697\O,0,-
 2.640863,-1.057832,3.691833\H,0,-2.477023,-2.002262,3.976853\H,0,-1.78
 8943,-0.538002,3.755283\O,0,0.497357,-4.710702,2.779773\H,0,0.063597,-
 5.359162,2.154163\H,0,0.923387,-5.209792,3.534353\O,0,-1.452553,6.9927
 18,-2.460757\H,0,-1.633343,6.254058,-1.811317\H,0,-1.579313,7.874468,-
 2.006347\O,0,-4.172113,4.074478,-1.557977\H,0,-4.633883,4.931278,-1.32
 8417\H,0,-4.828464,3.321038,-1.518107\O,0,1.264127,-0.366802,5.110473\
 H,0,1.570917,0.487598,5.529893\H,0,2.052067,-0.856622,4.737333\O,0,2.4
 35587,-5.443632,-0.607357\H,0,2.539497,-4.884382,0.215113\H,0,3.331997
 ,-5.591632,-1.025187\\Version=EM64L-G09RevD.01\State=1-A\HF=-1759.2764
 497\RMSD=8.619e-09\PG=C01 [X(C3H32O15)]\\@


 THERE IS MUCH PLEASURE TO BE GAINED FROM USELESS KNOWLEDGE

                                       -- BERTRAND RUSSELL
 Job cpu time:       0 days  2 hours 39 minutes 46.9 seconds.
 File lengths (MBytes):  RWF=    792 Int=      0 D2E=      0 Chk=     96 Scr=      2
 Normal termination of Gaussian 09 at Fri Sep 14 18:40:47 2018.
