 Entering Gaussian System, Link 0=g09
 Input=Acroleina_water_15_65c.gjf
 Output=Acroleina_water_15_65c.log
 Initial command:
 /usr/local/pacerepov1/gaussian/G09D01LINDA/g09/l1.exe /nv/hp18/holiveira7/scratch/22411972/Gau-63069.inp -scrdir=/nv/hp18/holiveira7/scratch/22411972/
 Entering Link 1 = /usr/local/pacerepov1/gaussian/G09D01LINDA/g09/l1.exe PID=     63070.
  
 Copyright (c) 1988,1990,1992,1993,1995,1998,2003,2009,2013,
            Gaussian, Inc.  All Rights Reserved.
  
 This is part of the Gaussian(R) 09 program.  It is based on
 the Gaussian(R) 03 system (copyright 2003, Gaussian, Inc.),
 the Gaussian(R) 98 system (copyright 1998, Gaussian, Inc.),
 the Gaussian(R) 94 system (copyright 1995, Gaussian, Inc.),
 the Gaussian 92(TM) system (copyright 1992, Gaussian, Inc.),
 the Gaussian 90(TM) system (copyright 1990, Gaussian, Inc.),
 the Gaussian 88(TM) system (copyright 1988, Gaussian, Inc.),
 the Gaussian 86(TM) system (copyright 1986, Carnegie Mellon
 University), and the Gaussian 82(TM) system (copyright 1983,
 Carnegie Mellon University). Gaussian is a federally registered
 trademark of Gaussian, Inc.
  
 This software contains proprietary and confidential information,
 including trade secrets, belonging to Gaussian, Inc.
  
 This software is provided under written license and may be
 used, copied, transmitted, or stored only in accord with that
 written license.
  
 The following legend is applicable only to US Government
 contracts under FAR:
  
                    RESTRICTED RIGHTS LEGEND
  
 Use, reproduction and disclosure by the US Government is
 subject to restrictions as set forth in subparagraphs (a)
 and (c) of the Commercial Computer Software - Restricted
 Rights clause in FAR 52.227-19.
  
 Gaussian, Inc.
 340 Quinnipiac St., Bldg. 40, Wallingford CT 06492
  
  
 ---------------------------------------------------------------
 Warning -- This program may not be used in any manner that
 competes with the business of Gaussian, Inc. or will provide
 assistance to any competitor of Gaussian, Inc.  The licensee
 of this program is prohibited from giving any competitor of
 Gaussian, Inc. access to this program.  By using this program,
 the user acknowledges that Gaussian, Inc. is engaged in the
 business of creating and licensing software in the field of
 computational chemistry and represents and warrants to the
 licensee that it is not a competitor of Gaussian, Inc. and that
 it will not use this program in any manner prohibited above.
 ---------------------------------------------------------------
  

 Cite this work as:
 Gaussian 09, Revision D.01,
 M. J. Frisch, G. W. Trucks, H. B. Schlegel, G. E. Scuseria, 
 M. A. Robb, J. R. Cheeseman, G. Scalmani, V. Barone, B. Mennucci, 
 G. A. Petersson, H. Nakatsuji, M. Caricato, X. Li, H. P. Hratchian, 
 A. F. Izmaylov, J. Bloino, G. Zheng, J. L. Sonnenberg, M. Hada, 
 M. Ehara, K. Toyota, R. Fukuda, J. Hasegawa, M. Ishida, T. Nakajima, 
 Y. Honda, O. Kitao, H. Nakai, T. Vreven, J. A. Montgomery, Jr., 
 J. E. Peralta, F. Ogliaro, M. Bearpark, J. J. Heyd, E. Brothers, 
 K. N. Kudin, V. N. Staroverov, T. Keith, R. Kobayashi, J. Normand, 
 K. Raghavachari, A. Rendell, J. C. Burant, S. S. Iyengar, J. Tomasi, 
 M. Cossi, N. Rega, J. M. Millam, M. Klene, J. E. Knox, J. B. Cross, 
 V. Bakken, C. Adamo, J. Jaramillo, R. Gomperts, R. E. Stratmann, 
 O. Yazyev, A. J. Austin, R. Cammi, C. Pomelli, J. W. Ochterski, 
 R. L. Martin, K. Morokuma, V. G. Zakrzewski, G. A. Voth, 
 P. Salvador, J. J. Dannenberg, S. Dapprich, A. D. Daniels, 
 O. Farkas, J. B. Foresman, J. V. Ortiz, J. Cioslowski, 
 and D. J. Fox, Gaussian, Inc., Wallingford CT, 2013.
 
 ******************************************
 Gaussian 09:  EM64L-G09RevD.01 24-Apr-2013
                14-Sep-2018 
 ******************************************
 %chk=Acrolina_Din_65.chk
 %nprocshared=10
 Will use up to   10 processors via shared memory.
 -------------------------------------------
 #p td=(nstates=15)/6-31+g(d) lc-wpbe charge
 -------------------------------------------
 1/18=10,28=-2,38=1,125=101/1;
 2/12=2,17=6,18=5,40=1/2;
 3/5=1,6=6,7=11,11=9,16=1,25=1,30=1,74=-41/1,2,8,3;
 4//1;
 5/5=2,38=5/2;
 8/6=1,10=2,108=15/1;
 9/41=15,42=1,70=2/14;
 6/7=2,8=2,9=2,10=2/1;
 99/5=1,9=1/99;
 Leave Link    1 at Fri Sep 14 17:24:23 2018, MaxMem=           0 cpu:         8.4
 (Enter /usr/local/pacerepov1/gaussian/G09D01LINDA/g09/l101.exe)
 ------------------
 Acroleina in Water
 ------------------
 Symbolic Z-matrix:
 Charge =  0 Multiplicity = 1
 C                     0.48515   0.48044  -1.43014 
 H                     1.4614    0.18777  -1.05573 
 H                     0.42924   0.87885  -2.43706 
 C                    -0.60513   0.34656  -0.65843 
 H                    -1.59169   0.63289  -1.01241 
 C                    -0.50852  -0.19911   0.7128 
 H                    -1.45849  -0.27211   1.27244 
 O                     0.54488  -0.56132   1.23652 
 O                     0.76257  -2.1405    2.71519 
 H                     0.70395  -1.26767   2.23068 
 H                     1.38496  -2.049     3.49256 
 O                     1.14594   3.11323  -1.94272 
 H                     1.40747   3.5741   -2.79079 
 H                     0.17361   3.2665   -1.76629 
 O                    -1.19265   3.45779  -1.51154 
 H                    -1.97909   2.97576  -1.89783 
 H                    -1.42105   3.78782  -0.59561 
 O                     3.95259   0.60582   0.01843 
 H                     3.72696   1.45057  -0.46693 
 H                     3.17104   0.32166   0.57382 
 O                     3.33621   2.67626  -1.0887 
 H                     3.96324   3.26779  -1.59557 
 H                     2.39637   2.86494  -1.37361 
 O                    -1.31096   4.06447   0.83667 
 H                    -2.25562   3.7466    0.91833 
 H                    -0.90876   4.15185   1.74807 
 O                    -1.23448  -2.40811   3.75379 
 H                    -1.25955  -3.25227   4.2893 
 H                    -0.33498  -2.31017   3.32795 
 O                     3.89303   3.86795   0.8227 
 H                     3.59289   3.14871   0.19608 
 H                     3.76817   4.76068   0.3897 
 O                     2.06012  -4.12288   1.94089 
 H                     1.48167  -3.32466   2.10908 
 H                     1.68635  -4.91346   2.42593 
 O                     2.31236   4.47503   2.66975 
 H                     1.98741   5.37861   2.39059 
 H                     2.86915   4.08056   1.93868 
 O                    -0.77866   5.28618  -3.03877 
 H                    -0.93985   4.55016  -2.38123 
 H                    -0.684     6.15402  -2.551 
 O                    -3.62193   3.09954  -2.36505 
 H                    -4.11336   3.49954  -1.59142 
 H                    -4.02684   2.21468  -2.59559 
 O                    -3.03605  -1.10296   3.32127 
 H                    -2.72691  -0.3086    2.79835 
 H                    -2.31799  -1.79898   3.32581 
 O                    -3.36179   0.33609  -5.63963 
 H                    -3.35331  -0.62388  -5.35951 
 H                    -2.43898   0.61332  -5.90728 
 
 NAtoms=     50 NQM=       50 NQMF=       0 NMMI=      0 NMMIF=      0
                NMic=       0 NMicF=      0.
                    Isotopes and Nuclear Properties:
 (Nuclear quadrupole moments (NQMom) in fm**2, nuclear magnetic moments (NMagM)
  in nuclear magnetons)

  Atom         1           2           3           4           5           6           7           8           9          10
 IAtWgt=          12           1           1          12           1          12           1          16          16           1
 AtmWgt=  12.0000000   1.0078250   1.0078250  12.0000000   1.0078250  12.0000000   1.0078250  15.9949146  15.9949146   1.0078250
 NucSpn=           0           1           1           0           1           0           1           0           0           1
 AtZEff=   0.0000000   0.0000000   0.0000000   0.0000000   0.0000000   0.0000000   0.0000000   0.0000000   0.0000000   0.0000000
 NQMom=    0.0000000   0.0000000   0.0000000   0.0000000   0.0000000   0.0000000   0.0000000   0.0000000   0.0000000   0.0000000
 NMagM=    0.0000000   2.7928460   2.7928460   0.0000000   2.7928460   0.0000000   2.7928460   0.0000000   0.0000000   2.7928460
 AtZNuc=   6.0000000   1.0000000   1.0000000   6.0000000   1.0000000   6.0000000   1.0000000   8.0000000   8.0000000   1.0000000

  Atom        11          12          13          14          15          16          17          18          19          20
 IAtWgt=           1          16           1           1          16           1           1          16           1           1
 AtmWgt=   1.0078250  15.9949146   1.0078250   1.0078250  15.9949146   1.0078250   1.0078250  15.9949146   1.0078250   1.0078250
 NucSpn=           1           0           1           1           0           1           1           0           1           1
 AtZEff=   0.0000000   0.0000000   0.0000000   0.0000000   0.0000000   0.0000000   0.0000000   0.0000000   0.0000000   0.0000000
 NQMom=    0.0000000   0.0000000   0.0000000   0.0000000   0.0000000   0.0000000   0.0000000   0.0000000   0.0000000   0.0000000
 NMagM=    2.7928460   0.0000000   2.7928460   2.7928460   0.0000000   2.7928460   2.7928460   0.0000000   2.7928460   2.7928460
 AtZNuc=   1.0000000   8.0000000   1.0000000   1.0000000   8.0000000   1.0000000   1.0000000   8.0000000   1.0000000   1.0000000

  Atom        21          22          23          24          25          26          27          28          29          30
 IAtWgt=          16           1           1          16           1           1          16           1           1          16
 AtmWgt=  15.9949146   1.0078250   1.0078250  15.9949146   1.0078250   1.0078250  15.9949146   1.0078250   1.0078250  15.9949146
 NucSpn=           0           1           1           0           1           1           0           1           1           0
 AtZEff=   0.0000000   0.0000000   0.0000000   0.0000000   0.0000000   0.0000000   0.0000000   0.0000000   0.0000000   0.0000000
 NQMom=    0.0000000   0.0000000   0.0000000   0.0000000   0.0000000   0.0000000   0.0000000   0.0000000   0.0000000   0.0000000
 NMagM=    0.0000000   2.7928460   2.7928460   0.0000000   2.7928460   2.7928460   0.0000000   2.7928460   2.7928460   0.0000000
 AtZNuc=   8.0000000   1.0000000   1.0000000   8.0000000   1.0000000   1.0000000   8.0000000   1.0000000   1.0000000   8.0000000

  Atom        31          32          33          34          35          36          37          38          39          40
 IAtWgt=           1           1          16           1           1          16           1           1          16           1
 AtmWgt=   1.0078250   1.0078250  15.9949146   1.0078250   1.0078250  15.9949146   1.0078250   1.0078250  15.9949146   1.0078250
 NucSpn=           1           1           0           1           1           0           1           1           0           1
 AtZEff=   0.0000000   0.0000000   0.0000000   0.0000000   0.0000000   0.0000000   0.0000000   0.0000000   0.0000000   0.0000000
 NQMom=    0.0000000   0.0000000   0.0000000   0.0000000   0.0000000   0.0000000   0.0000000   0.0000000   0.0000000   0.0000000
 NMagM=    2.7928460   2.7928460   0.0000000   2.7928460   2.7928460   0.0000000   2.7928460   2.7928460   0.0000000   2.7928460
 AtZNuc=   1.0000000   1.0000000   8.0000000   1.0000000   1.0000000   8.0000000   1.0000000   1.0000000   8.0000000   1.0000000

  Atom        41          42          43          44          45          46          47          48          49          50
 IAtWgt=           1          16           1           1          16           1           1          16           1           1
 AtmWgt=   1.0078250  15.9949146   1.0078250   1.0078250  15.9949146   1.0078250   1.0078250  15.9949146   1.0078250   1.0078250
 NucSpn=           1           0           1           1           0           1           1           0           1           1
 AtZEff=   0.0000000   0.0000000   0.0000000   0.0000000   0.0000000   0.0000000   0.0000000   0.0000000   0.0000000   0.0000000
 NQMom=    0.0000000   0.0000000   0.0000000   0.0000000   0.0000000   0.0000000   0.0000000   0.0000000   0.0000000   0.0000000
 NMagM=    2.7928460   0.0000000   2.7928460   2.7928460   0.0000000   2.7928460   2.7928460   0.0000000   2.7928460   2.7928460
 AtZNuc=   1.0000000   8.0000000   1.0000000   1.0000000   8.0000000   1.0000000   1.0000000   8.0000000   1.0000000   1.0000000
 Background charge distribution read from input stream:
 Point Charges:
 XYZ=    2.1887   -2.1704    4.4219 Q=   -0.8200 A=    0.0000 R=    0.0000 C=    0.0000
 XYZ=    2.5635   -1.5231    5.0857 Q=    0.4100 A=    0.0000 R=    0.0000 C=    0.0000
 XYZ=    2.9322   -2.7078    4.0240 Q=    0.4100 A=    0.0000 R=    0.0000 C=    0.0000
 XYZ=   -0.6166    6.4952    0.3967 Q=   -0.8200 A=    0.0000 R=    0.0000 C=    0.0000
 XYZ=   -1.0640    7.0735    1.0789 Q=    0.4100 A=    0.0000 R=    0.0000 C=    0.0000
 XYZ=   -0.9503    5.5566    0.4850 Q=    0.4100 A=    0.0000 R=    0.0000 C=    0.0000
 XYZ=   -3.9977   -2.7144    1.6645 Q=   -0.8200 A=    0.0000 R=    0.0000 C=    0.0000
 XYZ=   -3.6239   -2.1102    2.3681 Q=    0.4100 A=    0.0000 R=    0.0000 C=    0.0000
 XYZ=   -3.8797   -3.6668    1.9459 Q=    0.4100 A=    0.0000 R=    0.0000 C=    0.0000
 XYZ=    1.3411    4.4056   -3.7973 Q=   -0.8200 A=    0.0000 R=    0.0000 C=    0.0000
 XYZ=    0.3787    4.6755   -3.7628 Q=    0.4100 A=    0.0000 R=    0.0000 C=    0.0000
 XYZ=    1.5471    4.0201   -4.6967 Q=    0.4100 A=    0.0000 R=    0.0000 C=    0.0000
 XYZ=   -3.6693    3.2568    0.7746 Q=   -0.8200 A=    0.0000 R=    0.0000 C=    0.0000
 XYZ=   -4.0489    3.9079    0.1174 Q=    0.4100 A=    0.0000 R=    0.0000 C=    0.0000
 XYZ=   -4.1022    3.3921    1.6658 Q=    0.4100 A=    0.0000 R=    0.0000 C=    0.0000
 XYZ=   -5.4952   -2.8353   -0.2322 Q=   -0.8200 A=    0.0000 R=    0.0000 C=    0.0000
 XYZ=   -4.8158   -2.7556    0.4973 Q=    0.4100 A=    0.0000 R=    0.0000 C=    0.0000
 XYZ=   -5.6952   -3.8011   -0.3973 Q=    0.4100 A=    0.0000 R=    0.0000 C=    0.0000
 XYZ=   -5.2512    1.7770    0.2164 Q=   -0.8200 A=    0.0000 R=    0.0000 C=    0.0000
 XYZ=   -4.5842    2.5179    0.2960 Q=    0.4100 A=    0.0000 R=    0.0000 C=    0.0000
 XYZ=   -5.1361    1.3182   -0.6647 Q=    0.4100 A=    0.0000 R=    0.0000 C=    0.0000
 XYZ=   -5.3987    0.8877   -2.1513 Q=   -0.8200 A=    0.0000 R=    0.0000 C=    0.0000
 XYZ=   -5.6997   -0.0650   -2.1093 Q=    0.4100 A=    0.0000 R=    0.0000 C=    0.0000
 XYZ=   -5.8320    1.3400   -2.9309 Q=    0.4100 A=    0.0000 R=    0.0000 C=    0.0000
 XYZ=    3.7455   -3.4605    3.3591 Q=   -0.8200 A=    0.0000 R=    0.0000 C=    0.0000
 XYZ=    4.5171   -3.1398    2.8096 Q=    0.4100 A=    0.0000 R=    0.0000 C=    0.0000
 XYZ=    3.0102   -3.7667    2.7545 Q=    0.4100 A=    0.0000 R=    0.0000 C=    0.0000
 XYZ=   -1.0187    3.1760   -5.7972 Q=   -0.8200 A=    0.0000 R=    0.0000 C=    0.0000
 XYZ=   -0.0425    3.1989   -5.5819 Q=    0.4100 A=    0.0000 R=    0.0000 C=    0.0000
 XYZ=   -1.4924    3.8836   -5.2728 Q=    0.4100 A=    0.0000 R=    0.0000 C=    0.0000
 XYZ=   -6.3190   -1.2900   -1.9668 Q=   -0.8200 A=    0.0000 R=    0.0000 C=    0.0000
 XYZ=   -6.3718   -1.6056   -2.9142 Q=    0.4100 A=    0.0000 R=    0.0000 C=    0.0000
 XYZ=   -5.8659   -1.9852   -1.4087 Q=    0.4100 A=    0.0000 R=    0.0000 C=    0.0000
 XYZ=   -4.3410    3.9924   -4.4986 Q=   -0.8200 A=    0.0000 R=    0.0000 C=    0.0000
 XYZ=   -3.9775    3.6608   -3.6280 Q=    0.4100 A=    0.0000 R=    0.0000 C=    0.0000
 XYZ=   -4.7229    3.2253   -5.0141 Q=    0.4100 A=    0.0000 R=    0.0000 C=    0.0000
 XYZ=    1.5880    6.4765    1.2522 Q=   -0.8200 A=    0.0000 R=    0.0000 C=    0.0000
 XYZ=    1.7405    7.3415    1.7302 Q=    0.4100 A=    0.0000 R=    0.0000 C=    0.0000
 XYZ=    0.6554    6.4547    0.8919 Q=    0.4100 A=    0.0000 R=    0.0000 C=    0.0000
 XYZ=   -1.2476    0.9273   -6.3824 Q=   -0.8200 A=    0.0000 R=    0.0000 C=    0.0000
 XYZ=   -1.1076    1.8923   -6.1601 Q=    0.4100 A=    0.0000 R=    0.0000 C=    0.0000
 XYZ=   -1.3101    0.8196   -7.3747 Q=    0.4100 A=    0.0000 R=    0.0000 C=    0.0000
 XYZ=    2.6561    4.8519    4.9221 Q=   -0.8200 A=    0.0000 R=    0.0000 C=    0.0000
 XYZ=    2.6252    4.5388    3.9729 Q=    0.4100 A=    0.0000 R=    0.0000 C=    0.0000
 XYZ=    2.1611    4.2052    5.5026 Q=    0.4100 A=    0.0000 R=    0.0000 C=    0.0000
 XYZ=    3.3918    6.0120   -0.3206 Q=   -0.8200 A=    0.0000 R=    0.0000 C=    0.0000
 XYZ=    2.6488    6.2148    0.3174 Q=    0.4100 A=    0.0000 R=    0.0000 C=    0.0000
 XYZ=    3.0173    5.8867   -1.2393 Q=    0.4100 A=    0.0000 R=    0.0000 C=    0.0000
 XYZ=    6.3531    0.7139   -0.2624 Q=   -0.8200 A=    0.0000 R=    0.0000 C=    0.0000
 XYZ=    6.5438    0.9204   -1.2221 Q=    0.4100 A=    0.0000 R=    0.0000 C=    0.0000
 XYZ=    5.3690    0.5862   -0.1383 Q=    0.4100 A=    0.0000 R=    0.0000 C=    0.0000
 XYZ=    3.4908   -0.3636    5.6819 Q=   -0.8200 A=    0.0000 R=    0.0000 C=    0.0000
 XYZ=    4.1816   -1.0188    5.9879 Q=    0.4100 A=    0.0000 R=    0.0000 C=    0.0000
 XYZ=    3.9124    0.3018    5.0659 Q=    0.4100 A=    0.0000 R=    0.0000 C=    0.0000
 XYZ=    5.6577    4.1056    2.3941 Q=   -0.8200 A=    0.0000 R=    0.0000 C=    0.0000
 XYZ=    5.3188    4.0040    3.3295 Q=    0.4100 A=    0.0000 R=    0.0000 C=    0.0000
 XYZ=    4.9007    3.9897    1.7510 Q=    0.4100 A=    0.0000 R=    0.0000 C=    0.0000
 XYZ=    0.8497   -3.6998    5.9010 Q=   -0.8200 A=    0.0000 R=    0.0000 C=    0.0000
 XYZ=    1.2630   -2.9496    5.3849 Q=    0.4100 A=    0.0000 R=    0.0000 C=    0.0000
 XYZ=   -0.0159   -3.9610    5.4738 Q=    0.4100 A=    0.0000 R=    0.0000 C=    0.0000
 XYZ=   -2.3017    5.3646   -4.8178 Q=   -0.8200 A=    0.0000 R=    0.0000 C=    0.0000
 XYZ=   -1.7367    5.3959   -3.9933 Q=    0.4100 A=    0.0000 R=    0.0000 C=    0.0000
 XYZ=   -3.1917    4.9656   -4.5970 Q=    0.4100 A=    0.0000 R=    0.0000 C=    0.0000
 XYZ=    3.8905   -5.4946    0.9240 Q=   -0.8200 A=    0.0000 R=    0.0000 C=    0.0000
 XYZ=    3.2211   -4.7971    1.1800 Q=    0.4100 A=    0.0000 R=    0.0000 C=    0.0000
 XYZ=    4.2479   -5.9322    1.7491 Q=    0.4100 A=    0.0000 R=    0.0000 C=    0.0000
 XYZ=    2.8402    5.6749   -2.5751 Q=   -0.8200 A=    0.0000 R=    0.0000 C=    0.0000
 XYZ=    3.5981    5.0249   -2.5195 Q=    0.4100 A=    0.0000 R=    0.0000 C=    0.0000
 XYZ=    2.0897    5.2679   -3.0959 Q=    0.4100 A=    0.0000 R=    0.0000 C=    0.0000
 XYZ=   -1.9749   -7.2713    0.7990 Q=   -0.8200 A=    0.0000 R=    0.0000 C=    0.0000
 XYZ=   -1.7434   -8.2010    0.5124 Q=    0.4100 A=    0.0000 R=    0.0000 C=    0.0000
 XYZ=   -2.1727   -6.7136   -0.0072 Q=    0.4100 A=    0.0000 R=    0.0000 C=    0.0000
 XYZ=   -4.9105    4.3792   -0.9373 Q=   -0.8200 A=    0.0000 R=    0.0000 C=    0.0000
 XYZ=   -4.8879    5.3691   -1.0778 Q=    0.4100 A=    0.0000 R=    0.0000 C=    0.0000
 XYZ=   -5.6852    3.9895   -1.4354 Q=    0.4100 A=    0.0000 R=    0.0000 C=    0.0000
 XYZ=    2.1903    1.3323    7.0166 Q=   -0.8200 A=    0.0000 R=    0.0000 C=    0.0000
 XYZ=    2.3915    0.5632    6.4099 Q=    0.4100 A=    0.0000 R=    0.0000 C=    0.0000
 XYZ=    1.2897    1.2027    7.4314 Q=    0.4100 A=    0.0000 R=    0.0000 C=    0.0000
 XYZ=    5.0511    1.0861    4.6395 Q=   -0.8200 A=    0.0000 R=    0.0000 C=    0.0000
 XYZ=    5.6625    1.2117    5.4207 Q=    0.4100 A=    0.0000 R=    0.0000 C=    0.0000
 XYZ=    4.8238    1.9775    4.2474 Q=    0.4100 A=    0.0000 R=    0.0000 C=    0.0000
 XYZ=   -0.3356    7.3333   -1.7676 Q=   -0.8200 A=    0.0000 R=    0.0000 C=    0.0000
 XYZ=    0.5971    7.6605   -1.9195 Q=    0.4100 A=    0.0000 R=    0.0000 C=    0.0000
 XYZ=   -0.4221    6.9967   -0.8299 Q=    0.4100 A=    0.0000 R=    0.0000 C=    0.0000
 XYZ=    4.7386    4.2161   -2.1511 Q=   -0.8200 A=    0.0000 R=    0.0000 C=    0.0000
 XYZ=    4.9910    4.9610   -1.5334 Q=    0.4100 A=    0.0000 R=    0.0000 C=    0.0000
 XYZ=    5.5208    3.9828   -2.7288 Q=    0.4100 A=    0.0000 R=    0.0000 C=    0.0000
 XYZ=    1.1726    3.5381   -6.1131 Q=   -0.8200 A=    0.0000 R=    0.0000 C=    0.0000
 XYZ=    0.8971    4.3317   -6.6556 Q=    0.4100 A=    0.0000 R=    0.0000 C=    0.0000
 XYZ=    1.8725    3.0229   -6.6078 Q=    0.4100 A=    0.0000 R=    0.0000 C=    0.0000
 XYZ=   -5.2355    0.0854    3.8084 Q=   -0.8200 A=    0.0000 R=    0.0000 C=    0.0000
 XYZ=   -4.3123   -0.2053    3.5569 Q=    0.4100 A=    0.0000 R=    0.0000 C=    0.0000
 XYZ=   -5.6523   -0.6043    4.4007 Q=    0.4100 A=    0.0000 R=    0.0000 C=    0.0000
 XYZ=    6.0054   -0.8122    3.9459 Q=   -0.8200 A=    0.0000 R=    0.0000 C=    0.0000
 XYZ=    6.8397   -0.9212    4.4864 Q=    0.4100 A=    0.0000 R=    0.0000 C=    0.0000
 XYZ=    5.5594    0.0486    4.1913 Q=    0.4100 A=    0.0000 R=    0.0000 C=    0.0000
 XYZ=   -5.0300    2.2608   -5.8769 Q=   -0.8200 A=    0.0000 R=    0.0000 C=    0.0000
 XYZ=   -5.1444    2.6069   -6.8082 Q=    0.4100 A=    0.0000 R=    0.0000 C=    0.0000
 XYZ=   -4.3340    1.5427   -5.8714 Q=    0.4100 A=    0.0000 R=    0.0000 C=    0.0000
 XYZ=   -1.1351   -0.8984    7.3706 Q=   -0.8200 A=    0.0000 R=    0.0000 C=    0.0000
 XYZ=   -0.7050   -1.7819    7.5559 Q=    0.4100 A=    0.0000 R=    0.0000 C=    0.0000
 XYZ=   -1.5436   -0.9115    6.4579 Q=    0.4100 A=    0.0000 R=    0.0000 C=    0.0000
 XYZ=    1.1581   -6.0136    3.0578 Q=   -0.8200 A=    0.0000 R=    0.0000 C=    0.0000
 XYZ=    0.9696   -6.7640    2.4243 Q=    0.4100 A=    0.0000 R=    0.0000 C=    0.0000
 XYZ=    1.8821   -6.2864    3.6914 Q=    0.4100 A=    0.0000 R=    0.0000 C=    0.0000
 XYZ=   -6.4877    0.3755    1.9057 Q=   -0.8200 A=    0.0000 R=    0.0000 C=    0.0000
 XYZ=   -5.8372    0.6476    1.1966 Q=    0.4100 A=    0.0000 R=    0.0000 C=    0.0000
 XYZ=   -5.9943    0.1795    2.7531 Q=    0.4100 A=    0.0000 R=    0.0000 C=    0.0000
 XYZ=   -4.3427   -5.1895    2.3373 Q=   -0.8200 A=    0.0000 R=    0.0000 C=    0.0000
 XYZ=   -4.8103   -4.8008    3.1312 Q=    0.4100 A=    0.0000 R=    0.0000 C=    0.0000
 XYZ=   -3.8292   -6.0007    2.6172 Q=    0.4100 A=    0.0000 R=    0.0000 C=    0.0000
 XYZ=    6.0497   -2.7724    2.7141 Q=   -0.8200 A=    0.0000 R=    0.0000 C=    0.0000
 XYZ=    6.0086   -1.8744    3.1520 Q=    0.4100 A=    0.0000 R=    0.0000 C=    0.0000
 XYZ=    6.6503   -2.7267    1.9158 Q=    0.4100 A=    0.0000 R=    0.0000 C=    0.0000
 XYZ=   -7.0287   -1.9610    1.5298 Q=   -0.8200 A=    0.0000 R=    0.0000 C=    0.0000
 XYZ=   -6.4643   -2.2446    0.7545 Q=    0.4100 A=    0.0000 R=    0.0000 C=    0.0000
 XYZ=   -6.8858   -0.9873    1.7076 Q=    0.4100 A=    0.0000 R=    0.0000 C=    0.0000
 XYZ=    7.0593    2.2205    1.6049 Q=   -0.8200 A=    0.0000 R=    0.0000 C=    0.0000
 XYZ=    6.2904    2.8468    1.7335 Q=    0.4100 A=    0.0000 R=    0.0000 C=    0.0000
 XYZ=    6.7846    1.4760    0.9965 Q=    0.4100 A=    0.0000 R=    0.0000 C=    0.0000
 XYZ=   -1.2800   -4.2148    5.0391 Q=   -0.8200 A=    0.0000 R=    0.0000 C=    0.0000
 XYZ=   -1.6924   -4.1737    5.9492 Q=    0.4100 A=    0.0000 R=    0.0000 C=    0.0000
 XYZ=   -1.3030   -5.1571    4.7050 Q=    0.4100 A=    0.0000 R=    0.0000 C=    0.0000
 XYZ=   -4.0135    0.6686   -7.9854 Q=   -0.8200 A=    0.0000 R=    0.0000 C=    0.0000
 XYZ=   -4.2510   -0.1810   -8.4564 Q=    0.4100 A=    0.0000 R=    0.0000 C=    0.0000
 XYZ=   -4.0235    0.5158   -6.9972 Q=    0.4100 A=    0.0000 R=    0.0000 C=    0.0000
 XYZ=   -5.3420   -5.4904    0.2487 Q=   -0.8200 A=    0.0000 R=    0.0000 C=    0.0000
 XYZ=   -4.7593   -6.0873   -0.3028 Q=    0.4100 A=    0.0000 R=    0.0000 C=    0.0000
 XYZ=   -4.9697   -5.4239    1.1745 Q=    0.4100 A=    0.0000 R=    0.0000 C=    0.0000
 XYZ=    1.4131    3.5384    6.5134 Q=   -0.8200 A=    0.0000 R=    0.0000 C=    0.0000
 XYZ=    1.7981    4.1089    7.2389 Q=    0.4100 A=    0.0000 R=    0.0000 C=    0.0000
 XYZ=    1.8523    2.6401    6.5274 Q=    0.4100 A=    0.0000 R=    0.0000 C=    0.0000
 XYZ=   -4.6343    3.5627    2.9175 Q=   -0.8200 A=    0.0000 R=    0.0000 C=    0.0000
 XYZ=   -5.3739    4.1232    2.5447 Q=    0.4100 A=    0.0000 R=    0.0000 C=    0.0000
 XYZ=   -5.0182    2.8601    3.5167 Q=    0.4100 A=    0.0000 R=    0.0000 C=    0.0000
 XYZ=    0.2723   -7.8044    1.5308 Q=   -0.8200 A=    0.0000 R=    0.0000 C=    0.0000
 XYZ=    0.7939   -7.8851    0.6814 Q=    0.4100 A=    0.0000 R=    0.0000 C=    0.0000
 XYZ=   -0.6644   -7.5239    1.3213 Q=    0.4100 A=    0.0000 R=    0.0000 C=    0.0000
 XYZ=    4.6518   -4.0044    5.3928 Q=   -0.8200 A=    0.0000 R=    0.0000 C=    0.0000
 XYZ=    4.2677   -3.8346    4.4852 Q=    0.4100 A=    0.0000 R=    0.0000 C=    0.0000
 XYZ=    5.0091   -3.1495    5.7689 Q=    0.4100 A=    0.0000 R=    0.0000 C=    0.0000
 XYZ=    4.8056    3.8126    4.5737 Q=   -0.8200 A=    0.0000 R=    0.0000 C=    0.0000
 XYZ=    5.6159    4.0327    5.1170 Q=    0.4100 A=    0.0000 R=    0.0000 C=    0.0000
 XYZ=    4.0270    4.3451    4.9057 Q=    0.4100 A=    0.0000 R=    0.0000 C=    0.0000
 XYZ=    1.3822    6.9358    4.5346 Q=   -0.8200 A=    0.0000 R=    0.0000 C=    0.0000
 XYZ=    1.9408    6.1255    4.7119 Q=    0.4100 A=    0.0000 R=    0.0000 C=    0.0000
 XYZ=    0.5202    6.8627    5.0363 Q=    0.4100 A=    0.0000 R=    0.0000 C=    0.0000
 XYZ=   -0.9114    3.3182   -8.2259 Q=   -0.8200 A=    0.0000 R=    0.0000 C=    0.0000
 XYZ=   -1.0969    3.3621   -7.2442 Q=    0.4100 A=    0.0000 R=    0.0000 C=    0.0000
 XYZ=   -1.4407    4.0239   -8.6969 Q=    0.4100 A=    0.0000 R=    0.0000 C=    0.0000
 XYZ=   -3.9673   -7.0482   -1.2264 Q=   -0.8200 A=    0.0000 R=    0.0000 C=    0.0000
 XYZ=   -3.9991   -6.7909   -2.1923 Q=    0.4100 A=    0.0000 R=    0.0000 C=    0.0000
 XYZ=   -3.9313   -8.0445   -1.1480 Q=    0.4100 A=    0.0000 R=    0.0000 C=    0.0000
 XYZ=   -0.9770   -6.3664    4.1627 Q=   -0.8200 A=    0.0000 R=    0.0000 C=    0.0000
 XYZ=   -0.0428   -6.3291    3.8079 Q=    0.4100 A=    0.0000 R=    0.0000 C=    0.0000
 XYZ=   -1.1006   -7.2083    4.6881 Q=    0.4100 A=    0.0000 R=    0.0000 C=    0.0000
 XYZ=   -2.7885   -7.0543    2.8891 Q=   -0.8200 A=    0.0000 R=    0.0000 C=    0.0000
 XYZ=   -2.0143   -6.6767    3.3972 Q=    0.4100 A=    0.0000 R=    0.0000 C=    0.0000
 XYZ=   -2.5274   -7.1852    1.9327 Q=    0.4100 A=    0.0000 R=    0.0000 C=    0.0000
 XYZ=   -4.1195   -2.7855    5.7633 Q=   -0.8200 A=    0.0000 R=    0.0000 C=    0.0000
 XYZ=   -3.7196   -2.0002    5.2906 Q=    0.4100 A=    0.0000 R=    0.0000 C=    0.0000
 XYZ=   -3.4032   -3.2752    6.2605 Q=    0.4100 A=    0.0000 R=    0.0000 C=    0.0000
 XYZ=   -8.5705   -0.7540   -1.8435 Q=   -0.8200 A=    0.0000 R=    0.0000 C=    0.0000
 XYZ=   -8.9740    0.1329   -2.0689 Q=    0.4100 A=    0.0000 R=    0.0000 C=    0.0000
 XYZ=   -7.5889   -0.7314   -2.0333 Q=    0.4100 A=    0.0000 R=    0.0000 C=    0.0000
 XYZ=    1.1385   -7.9773   -0.6170 Q=   -0.8200 A=    0.0000 R=    0.0000 C=    0.0000
 XYZ=    2.0221   -7.5090   -0.6102 Q=    0.4100 A=    0.0000 R=    0.0000 C=    0.0000
 XYZ=    0.9853   -8.3868   -1.5164 Q=    0.4100 A=    0.0000 R=    0.0000 C=    0.0000
 XYZ=    5.6736    6.0267   -0.9060 Q=   -0.8200 A=    0.0000 R=    0.0000 C=    0.0000
 XYZ=    4.7987    6.3997   -0.5972 Q=    0.4100 A=    0.0000 R=    0.0000 C=    0.0000
 XYZ=    6.3955    6.3001   -0.2702 Q=    0.4100 A=    0.0000 R=    0.0000 C=    0.0000
 XYZ=   -6.6735    3.8871   -2.7822 Q=   -0.8200 A=    0.0000 R=    0.0000 C=    0.0000
 XYZ=   -6.5301    4.6813   -3.3727 Q=    0.4100 A=    0.0000 R=    0.0000 C=    0.0000
 XYZ=   -6.4270    3.0543   -3.2780 Q=    0.4100 A=    0.0000 R=    0.0000 C=    0.0000
 XYZ=   -3.7905    5.0718    4.4243 Q=   -0.8200 A=    0.0000 R=    0.0000 C=    0.0000
 XYZ=   -4.5315    5.4272    4.9942 Q=    0.4100 A=    0.0000 R=    0.0000 C=    0.0000
 XYZ=   -4.1668    4.4485    3.7388 Q=    0.4100 A=    0.0000 R=    0.0000 C=    0.0000
 XYZ=   -6.4736    1.7332   -4.1601 Q=   -0.8200 A=    0.0000 R=    0.0000 C=    0.0000
 XYZ=   -6.0443    1.9003   -5.0478 Q=    0.4100 A=    0.0000 R=    0.0000 C=    0.0000
 XYZ=   -7.4334    1.4870   -4.2951 Q=    0.4100 A=    0.0000 R=    0.0000 C=    0.0000
 XYZ=    3.3555   -7.3262   -0.5742 Q=   -0.8200 A=    0.0000 R=    0.0000 C=    0.0000
 XYZ=    3.6091   -6.5542    0.0087 Q=    0.4100 A=    0.0000 R=    0.0000 C=    0.0000
 XYZ=    3.9773   -7.3719   -1.3560 Q=    0.4100 A=    0.0000 R=    0.0000 C=    0.0000
 XYZ=    1.9147    8.0323   -2.2346 Q=   -0.8200 A=    0.0000 R=    0.0000 C=    0.0000
 XYZ=    2.0323    8.6329   -3.0255 Q=    0.4100 A=    0.0000 R=    0.0000 C=    0.0000
 XYZ=    2.4106    7.1777   -2.3885 Q=    0.4100 A=    0.0000 R=    0.0000 C=    0.0000
 XYZ=   -4.7673   -6.8669   -3.5928 Q=   -0.8200 A=    0.0000 R=    0.0000 C=    0.0000
 XYZ=   -4.5238   -6.2740   -4.3605 Q=    0.4100 A=    0.0000 R=    0.0000 C=    0.0000
 XYZ=   -5.6863   -6.6368   -3.2725 Q=    0.4100 A=    0.0000 R=    0.0000 C=    0.0000
 XYZ=   -0.7379    3.0893    7.2062 Q=   -0.8200 A=    0.0000 R=    0.0000 C=    0.0000
 XYZ=    0.1854    3.3016    6.8861 Q=    0.4100 A=    0.0000 R=    0.0000 C=    0.0000
 XYZ=   -0.7528    2.1671    7.5927 Q=    0.4100 A=    0.0000 R=    0.0000 C=    0.0000
 XYZ=   -2.3288    6.9192    3.8625 Q=   -0.8200 A=    0.0000 R=    0.0000 C=    0.0000
 XYZ=   -2.8604    6.0917    4.0433 Q=    0.4100 A=    0.0000 R=    0.0000 C=    0.0000
 XYZ=   -2.9001    7.7240    4.0230 Q=    0.4100 A=    0.0000 R=    0.0000 C=    0.0000
 XYZ=    8.0497   -0.5706    0.3621 Q=   -0.8200 A=    0.0000 R=    0.0000 C=    0.0000
 XYZ=    7.2008   -0.0454    0.3024 Q=    0.4100 A=    0.0000 R=    0.0000 C=    0.0000
 XYZ=    7.8393   -1.5174    0.6060 Q=    0.4100 A=    0.0000 R=    0.0000 C=    0.0000
 XYZ=   -0.3433   -3.0264    7.8202 Q=   -0.8200 A=    0.0000 R=    0.0000 C=    0.0000
 XYZ=    0.2791   -3.1947    7.0558 Q=    0.4100 A=    0.0000 R=    0.0000 C=    0.0000
 XYZ=    0.0406   -3.4201    8.6555 Q=    0.4100 A=    0.0000 R=    0.0000 C=    0.0000
 XYZ=    1.0750    8.3244    2.7901 Q=   -0.8200 A=    0.0000 R=    0.0000 C=    0.0000
 XYZ=    0.1473    8.1303    2.4711 Q=    0.4100 A=    0.0000 R=    0.0000 C=    0.0000
 XYZ=    1.2836    7.7469    3.5795 Q=    0.4100 A=    0.0000 R=    0.0000 C=    0.0000
 XYZ=    0.0382    1.0259    8.1373 Q=   -0.8200 A=    0.0000 R=    0.0000 C=    0.0000
 XYZ=   -0.5090    0.2491    7.8254 Q=    0.4100 A=    0.0000 R=    0.0000 C=    0.0000
 XYZ=    0.0007    1.0808    9.1351 Q=    0.4100 A=    0.0000 R=    0.0000 C=    0.0000
 XYZ=    5.8632   -5.6266   -0.3646 Q=   -0.8200 A=    0.0000 R=    0.0000 C=    0.0000
 XYZ=    4.9725   -5.5343    0.0806 Q=    0.4100 A=    0.0000 R=    0.0000 C=    0.0000
 XYZ=    5.7885   -6.2658   -1.1300 Q=    0.4100 A=    0.0000 R=    0.0000 C=    0.0000
 XYZ=   -1.1290    8.0953    2.0796 Q=   -0.8200 A=    0.0000 R=    0.0000 C=    0.0000
 XYZ=   -1.6280    7.7076    2.8547 Q=    0.4100 A=    0.0000 R=    0.0000 C=    0.0000
 XYZ=   -1.7195    8.7373    1.5905 Q=    0.4100 A=    0.0000 R=    0.0000 C=    0.0000
 XYZ=   -4.9039    6.6967   -1.3490 Q=   -0.8200 A=    0.0000 R=    0.0000 C=    0.0000
 XYZ=   -4.0290    7.0033   -1.7237 Q=    0.4100 A=    0.0000 R=    0.0000 C=    0.0000
 XYZ=   -5.2930    7.4189   -0.7771 Q=    0.4100 A=    0.0000 R=    0.0000 C=    0.0000
 XYZ=    2.8338   -5.2024    6.3596 Q=   -0.8200 A=    0.0000 R=    0.0000 C=    0.0000
 XYZ=    3.6164   -4.6663    6.0430 Q=    0.4100 A=    0.0000 R=    0.0000 C=    0.0000
 XYZ=    1.9866   -4.7248    6.1269 Q=    0.4100 A=    0.0000 R=    0.0000 C=    0.0000
 XYZ=    6.7367    1.3752   -2.5578 Q=   -0.8200 A=    0.0000 R=    0.0000 C=    0.0000
 XYZ=    6.8024    2.2938   -2.9476 Q=    0.4100 A=    0.0000 R=    0.0000 C=    0.0000
 XYZ=    6.8391    0.6964   -3.2850 Q=    0.4100 A=    0.0000 R=    0.0000 C=    0.0000
 XYZ=   -2.2070    7.8559   -4.7450 Q=   -0.8200 A=    0.0000 R=    0.0000 C=    0.0000
 XYZ=   -2.4499    7.9869   -3.7838 Q=    0.4100 A=    0.0000 R=    0.0000 C=    0.0000
 XYZ=   -2.2202    6.8798   -4.9620 Q=    0.4100 A=    0.0000 R=    0.0000 C=    0.0000
 XYZ=    4.0629   -1.0688   -7.2017 Q=   -0.8200 A=    0.0000 R=    0.0000 C=    0.0000
 XYZ=    4.1519   -0.1808   -7.6530 Q=    0.4100 A=    0.0000 R=    0.0000 C=    0.0000
 XYZ=    3.1086   -1.3657   -7.2355 Q=    0.4100 A=    0.0000 R=    0.0000 C=    0.0000
 XYZ=   -2.7947    4.6216    6.6065 Q=   -0.8200 A=    0.0000 R=    0.0000 C=    0.0000
 XYZ=   -3.1122    4.6501    5.6587 Q=    0.4100 A=    0.0000 R=    0.0000 C=    0.0000
 XYZ=   -1.9113    4.1547    6.6482 Q=    0.4100 A=    0.0000 R=    0.0000 C=    0.0000
 XYZ=   -2.5451    8.3672   -2.4868 Q=   -0.8200 A=    0.0000 R=    0.0000 C=    0.0000
 XYZ=   -2.9383    8.9812   -1.8024 Q=    0.4100 A=    0.0000 R=    0.0000 C=    0.0000
 XYZ=   -1.6665    8.0207   -2.1582 Q=    0.4100 A=    0.0000 R=    0.0000 C=    0.0000
 XYZ=    7.5362    5.3563    2.2463 Q=   -0.8200 A=    0.0000 R=    0.0000 C=    0.0000
 XYZ=    6.6904    4.8241    2.2843 Q=    0.4100 A=    0.0000 R=    0.0000 C=    0.0000
 XYZ=    8.3066    4.7451    2.0644 Q=    0.4100 A=    0.0000 R=    0.0000 C=    0.0000
 XYZ=    8.0188    0.9730    3.3318 Q=   -0.8200 A=    0.0000 R=    0.0000 C=    0.0000
 XYZ=    7.5895    1.6289    2.7109 Q=    0.4100 A=    0.0000 R=    0.0000 C=    0.0000
 XYZ=    7.4119    0.1885    3.4594 Q=    0.4100 A=    0.0000 R=    0.0000 C=    0.0000
 XYZ=   -4.8526   -6.2246   -6.0134 Q=   -0.8200 A=    0.0000 R=    0.0000 C=    0.0000
 XYZ=   -4.7141   -5.3734   -6.5197 Q=    0.4100 A=    0.0000 R=    0.0000 C=    0.0000
 XYZ=   -5.7600   -6.5911   -6.2195 Q=    0.4100 A=    0.0000 R=    0.0000 C=    0.0000
 XYZ=    5.1925   -1.9416    6.4328 Q=   -0.8200 A=    0.0000 R=    0.0000 C=    0.0000
 XYZ=    5.5107   -2.0226    7.3774 Q=    0.4100 A=    0.0000 R=    0.0000 C=    0.0000
 XYZ=    5.9412   -1.6151    5.8558 Q=    0.4100 A=    0.0000 R=    0.0000 C=    0.0000
 XYZ=   -5.7125    2.1991    4.8067 Q=   -0.8200 A=    0.0000 R=    0.0000 C=    0.0000
 XYZ=   -5.6884    2.2284    5.8060 Q=    0.4100 A=    0.0000 R=    0.0000 C=    0.0000
 XYZ=   -5.4482    1.2869    4.4936 Q=    0.4100 A=    0.0000 R=    0.0000 C=    0.0000
 XYZ=   -0.6206    6.9661    5.5769 Q=   -0.8200 A=    0.0000 R=    0.0000 C=    0.0000
 XYZ=   -1.3399    7.0277    4.8850 Q=    0.4100 A=    0.0000 R=    0.0000 C=    0.0000
 XYZ=   -0.9383    7.3877    6.4263 Q=    0.4100 A=    0.0000 R=    0.0000 C=    0.0000
 XYZ=    6.4125   -4.5684    4.0804 Q=   -0.8200 A=    0.0000 R=    0.0000 C=    0.0000
 XYZ=    6.3620   -3.6478    3.6931 Q=    0.4100 A=    0.0000 R=    0.0000 C=    0.0000
 XYZ=    5.8102   -4.6286    4.8764 Q=    0.4100 A=    0.0000 R=    0.0000 C=    0.0000
 XYZ=   -7.8072    3.2894    1.0150 Q=   -0.8200 A=    0.0000 R=    0.0000 C=    0.0000
 XYZ=   -7.2429    2.4965    0.7849 Q=    0.4100 A=    0.0000 R=    0.0000 C=    0.0000
 XYZ=   -8.6283    2.9853    1.4980 Q=    0.4100 A=    0.0000 R=    0.0000 C=    0.0000
 XYZ=   -5.3301   -4.4551    4.4808 Q=   -0.8200 A=    0.0000 R=    0.0000 C=    0.0000
 XYZ=   -6.0847   -3.8532    4.2195 Q=    0.4100 A=    0.0000 R=    0.0000 C=    0.0000
 XYZ=   -4.6702   -3.9429    5.0305 Q=    0.4100 A=    0.0000 R=    0.0000 C=    0.0000
 XYZ=   -1.9804    1.4028   -9.0094 Q=   -0.8200 A=    0.0000 R=    0.0000 C=    0.0000
 XYZ=   -2.9481    1.2999   -8.7791 Q=    0.4100 A=    0.0000 R=    0.0000 C=    0.0000
 XYZ=   -1.6139    2.2143   -8.5542 Q=    0.4100 A=    0.0000 R=    0.0000 C=    0.0000
 XYZ=    5.1281   -2.0415   -5.1974 Q=   -0.8200 A=    0.0000 R=    0.0000 C=    0.0000
 XYZ=    4.6308   -1.7316   -6.0078 Q=    0.4100 A=    0.0000 R=    0.0000 C=    0.0000
 XYZ=    5.5891   -1.2630   -4.7715 Q=    0.4100 A=    0.0000 R=    0.0000 C=    0.0000
 XYZ=    3.2463    2.2928    8.7209 Q=   -0.8200 A=    0.0000 R=    0.0000 C=    0.0000
 XYZ=    4.2346    2.3062    8.5686 Q=    0.4100 A=    0.0000 R=    0.0000 C=    0.0000
 XYZ=    2.7910    1.9044    7.9197 Q=    0.4100 A=    0.0000 R=    0.0000 C=    0.0000
 XYZ=    7.4562   -2.8200    0.9030 Q=   -0.8200 A=    0.0000 R=    0.0000 C=    0.0000
 XYZ=    7.2240   -3.1403   -0.0155 Q=    0.4100 A=    0.0000 R=    0.0000 C=    0.0000
 XYZ=    7.8254   -3.5802    1.4376 Q=    0.4100 A=    0.0000 R=    0.0000 C=    0.0000
 XYZ=   -7.1837   -3.0282    3.7096 Q=   -0.8200 A=    0.0000 R=    0.0000 C=    0.0000
 XYZ=   -7.1248   -2.6932    2.7693 Q=    0.4100 A=    0.0000 R=    0.0000 C=    0.0000
 XYZ=   -7.9230   -3.6980    3.7790 Q=    0.4100 A=    0.0000 R=    0.0000 C=    0.0000
 XYZ=    2.8832    2.6921   -7.8626 Q=   -0.8200 A=    0.0000 R=    0.0000 C=    0.0000
 XYZ=    3.6041    3.0203   -7.2522 Q=    0.4100 A=    0.0000 R=    0.0000 C=    0.0000
 XYZ=    3.2024    1.8779   -8.3478 Q=    0.4100 A=    0.0000 R=    0.0000 C=    0.0000
 XYZ=   -8.3417    2.9163   -1.1909 Q=   -0.8200 A=    0.0000 R=    0.0000 C=    0.0000
 XYZ=   -7.7249    3.4403   -1.7783 Q=    0.4100 A=    0.0000 R=    0.0000 C=    0.0000
 XYZ=   -8.2687    3.2485   -0.2505 Q=    0.4100 A=    0.0000 R=    0.0000 C=    0.0000
 XYZ=   -2.3843   -3.8627    7.0241 Q=   -0.8200 A=    0.0000 R=    0.0000 C=    0.0000
 XYZ=   -1.6377   -3.4432    7.5405 Q=    0.4100 A=    0.0000 R=    0.0000 C=    0.0000
 XYZ=   -2.5874   -4.7648    7.4051 Q=    0.4100 A=    0.0000 R=    0.0000 C=    0.0000
 XYZ=    4.8109   -6.2000    3.1346 Q=   -0.8200 A=    0.0000 R=    0.0000 C=    0.0000
 XYZ=    4.0851   -6.3887    3.7961 Q=    0.4100 A=    0.0000 R=    0.0000 C=    0.0000
 XYZ=    5.4409   -5.5230    3.5151 Q=    0.4100 A=    0.0000 R=    0.0000 C=    0.0000
 XYZ=   -7.0454   -7.0512    0.7931 Q=   -0.8200 A=    0.0000 R=    0.0000 C=    0.0000
 XYZ=   -7.9569   -6.8087    0.4608 Q=    0.4100 A=    0.0000 R=    0.0000 C=    0.0000
 XYZ=   -6.3814   -6.3794    0.4649 Q=    0.4100 A=    0.0000 R=    0.0000 C=    0.0000
 XYZ=    0.5268   -9.6802    2.6799 Q=   -0.8200 A=    0.0000 R=    0.0000 C=    0.0000
 XYZ=    0.6834  -10.2670    1.8855 Q=    0.4100 A=    0.0000 R=    0.0000 C=    0.0000
 XYZ=    0.4657   -8.7271    2.3834 Q=    0.4100 A=    0.0000 R=    0.0000 C=    0.0000
 XYZ=    1.8008    9.8496   -0.6167 Q=   -0.8200 A=    0.0000 R=    0.0000 C=    0.0000
 XYZ=    2.7061   10.2741   -0.5978 Q=    0.4100 A=    0.0000 R=    0.0000 C=    0.0000
 XYZ=    1.8143    9.0633   -1.2345 Q=    0.4100 A=    0.0000 R=    0.0000 C=    0.0000
 XYZ=    4.4068    3.6483   -6.5606 Q=   -0.8200 A=    0.0000 R=    0.0000 C=    0.0000
 XYZ=    5.3162    3.5788   -6.1504 Q=    0.4100 A=    0.0000 R=    0.0000 C=    0.0000
 XYZ=    4.1053    4.6016   -6.5432 Q=    0.4100 A=    0.0000 R=    0.0000 C=    0.0000
 XYZ=    6.8553    3.5732   -3.4196 Q=   -0.8200 A=    0.0000 R=    0.0000 C=    0.0000
 XYZ=    7.7043    4.0119   -3.1249 Q=    0.4100 A=    0.0000 R=    0.0000 C=    0.0000
 XYZ=    6.7826    3.6233   -4.4157 Q=    0.4100 A=    0.0000 R=    0.0000 C=    0.0000
 XYZ=   -9.0481   -1.3259    0.5704 Q=   -0.8200 A=    0.0000 R=    0.0000 C=    0.0000
 XYZ=   -8.8887   -1.1567   -0.4022 Q=    0.4100 A=    0.0000 R=    0.0000 C=    0.0000
 XYZ=   -8.3237   -1.9144    0.9294 Q=    0.4100 A=    0.0000 R=    0.0000 C=    0.0000
 XYZ=   -5.1515   -4.6037   -7.6508 Q=   -0.8200 A=    0.0000 R=    0.0000 C=    0.0000
 XYZ=   -4.7844   -5.2224   -8.3454 Q=    0.4100 A=    0.0000 R=    0.0000 C=    0.0000
 XYZ=   -5.7007   -3.8945   -8.0930 Q=    0.4100 A=    0.0000 R=    0.0000 C=    0.0000
 XYZ=    2.7858   -6.8247    4.4975 Q=   -0.8200 A=    0.0000 R=    0.0000 C=    0.0000
 XYZ=    2.1847   -7.6157    4.6116 Q=    0.4100 A=    0.0000 R=    0.0000 C=    0.0000
 XYZ=    2.8571   -6.3324    5.3651 Q=    0.4100 A=    0.0000 R=    0.0000 C=    0.0000
 XYZ=   -6.2423   -1.5501    5.3056 Q=   -0.8200 A=    0.0000 R=    0.0000 C=    0.0000
 XYZ=   -6.8253   -2.0717    4.6826 Q=    0.4100 A=    0.0000 R=    0.0000 C=    0.0000
 XYZ=   -5.4674   -2.1153    5.5887 Q=    0.4100 A=    0.0000 R=    0.0000 C=    0.0000
 XYZ=   -3.4746   -7.9482   -6.4743 Q=   -0.8200 A=    0.0000 R=    0.0000 C=    0.0000
 XYZ=   -3.9503   -7.0985   -6.2470 Q=    0.4100 A=    0.0000 R=    0.0000 C=    0.0000
 XYZ=   -3.5897   -8.6044   -5.7285 Q=    0.4100 A=    0.0000 R=    0.0000 C=    0.0000
 XYZ=    6.3840   -3.8787   -4.5662 Q=   -0.8200 A=    0.0000 R=    0.0000 C=    0.0000
 XYZ=    6.7348   -3.5911   -3.6749 Q=    0.4100 A=    0.0000 R=    0.0000 C=    0.0000
 XYZ=    5.7229   -3.2053   -4.8972 Q=    0.4100 A=    0.0000 R=    0.0000 C=    0.0000
 XYZ=    8.7854    0.7391   -1.4096 Q=   -0.8200 A=    0.0000 R=    0.0000 C=    0.0000
 XYZ=    8.0148    1.0308   -1.9763 Q=    0.4100 A=    0.0000 R=    0.0000 C=    0.0000
 XYZ=    8.4415    0.2868   -0.5867 Q=    0.4100 A=    0.0000 R=    0.0000 C=    0.0000
 XYZ=   -5.2418    2.6025   -8.3272 Q=   -0.8200 A=    0.0000 R=    0.0000 C=    0.0000
 XYZ=   -4.7855    3.1768   -9.0068 Q=    0.4100 A=    0.0000 R=    0.0000 C=    0.0000
 XYZ=   -4.8252    1.6934   -8.3253 Q=    0.4100 A=    0.0000 R=    0.0000 C=    0.0000
 XYZ=   -4.4141   -8.2870    4.0141 Q=   -0.8200 A=    0.0000 R=    0.0000 C=    0.0000
 XYZ=   -3.7829   -7.7928    3.4162 Q=    0.4100 A=    0.0000 R=    0.0000 C=    0.0000
 XYZ=   -5.1913   -7.6987    4.2374 Q=    0.4100 A=    0.0000 R=    0.0000 C=    0.0000
 XYZ=   -4.6796   -1.3450   -9.0388 Q=   -0.8200 A=    0.0000 R=    0.0000 C=    0.0000
 XYZ=   -5.4305   -2.0033   -9.0916 Q=    0.4100 A=    0.0000 R=    0.0000 C=    0.0000
 XYZ=   -4.1899   -1.3273   -9.9105 Q=    0.4100 A=    0.0000 R=    0.0000 C=    0.0000
 XYZ=   -6.6270    4.8036    2.4307 Q=   -0.8200 A=    0.0000 R=    0.0000 C=    0.0000
 XYZ=   -7.0406    4.6169    3.3218 Q=    0.4100 A=    0.0000 R=    0.0000 C=    0.0000
 XYZ=   -7.1188    4.2971    1.7223 Q=    0.4100 A=    0.0000 R=    0.0000 C=    0.0000
 XYZ=    1.3161    3.1023   -9.4615 Q=   -0.8200 A=    0.0000 R=    0.0000 C=    0.0000
 XYZ=    0.3823    3.0374   -9.1096 Q=    0.4100 A=    0.0000 R=    0.0000 C=    0.0000
 XYZ=    1.9645    2.9306   -8.7197 Q=    0.4100 A=    0.0000 R=    0.0000 C=    0.0000
 XYZ=    1.4794   10.1925    1.6178 Q=   -0.8200 A=    0.0000 R=    0.0000 C=    0.0000
 XYZ=    1.2509    9.4566    2.2553 Q=    0.4100 A=    0.0000 R=    0.0000 C=    0.0000
 XYZ=    1.3511    9.8722    0.6792 Q=    0.4100 A=    0.0000 R=    0.0000 C=    0.0000
 XYZ=   -1.8697   -9.5055    0.0961 Q=   -0.8200 A=    0.0000 R=    0.0000 C=    0.0000
 XYZ=   -2.7340   -9.5903   -0.3997 Q=    0.4100 A=    0.0000 R=    0.0000 C=    0.0000
 XYZ=   -1.2524  -10.2416   -0.1817 Q=    0.4100 A=    0.0000 R=    0.0000 C=    0.0000
 XYZ=    7.4802   -4.0734   -1.0958 Q=   -0.8200 A=    0.0000 R=    0.0000 C=    0.0000
 XYZ=    6.8281   -4.8017   -0.8850 Q=    0.4100 A=    0.0000 R=    0.0000 C=    0.0000
 XYZ=    8.3626   -4.4762   -1.3390 Q=    0.4100 A=    0.0000 R=    0.0000 C=    0.0000
 XYZ=    6.4882    1.3586    6.6119 Q=   -0.8200 A=    0.0000 R=    0.0000 C=    0.0000
 XYZ=    7.2614    1.9511    6.3856 Q=    0.4100 A=    0.0000 R=    0.0000 C=    0.0000
 XYZ=    6.0556    1.6820    7.4535 Q=    0.4100 A=    0.0000 R=    0.0000 C=    0.0000
 XYZ=    9.1231    3.5531    2.1351 Q=   -0.8200 A=    0.0000 R=    0.0000 C=    0.0000
 XYZ=    9.2267    3.1680    3.0522 Q=    0.4100 A=    0.0000 R=    0.0000 C=    0.0000
 XYZ=    8.4780    2.9971    1.6110 Q=    0.4100 A=    0.0000 R=    0.0000 C=    0.0000
 XYZ=   -8.8626    0.4027    2.1546 Q=   -0.8200 A=    0.0000 R=    0.0000 C=    0.0000
 XYZ=   -7.8984    0.5758    2.3556 Q=    0.4100 A=    0.0000 R=    0.0000 C=    0.0000
 XYZ=   -8.9348   -0.3092    1.4560 Q=    0.4100 A=    0.0000 R=    0.0000 C=    0.0000
 XYZ=   -0.5573   -2.8224  -10.7337 Q=   -0.8200 A=    0.0000 R=    0.0000 C=    0.0000
 XYZ=   -0.4165   -3.7542  -11.0682 Q=    0.4100 A=    0.0000 R=    0.0000 C=    0.0000
 XYZ=   -0.9709   -2.8539   -9.8238 Q=    0.4100 A=    0.0000 R=    0.0000 C=    0.0000
 XYZ=    7.0708   -0.5002   -3.9795 Q=   -0.8200 A=    0.0000 R=    0.0000 C=    0.0000
 XYZ=    7.5301   -0.5437   -4.8667 Q=    0.4100 A=    0.0000 R=    0.0000 C=    0.0000
 XYZ=    7.2013   -1.3645   -3.4938 Q=    0.4100 A=    0.0000 R=    0.0000 C=    0.0000
 XYZ=    7.5882   -1.5103    5.3997 Q=   -0.8200 A=    0.0000 R=    0.0000 C=    0.0000
 XYZ=    7.9299   -1.0502    6.2192 Q=    0.4100 A=    0.0000 R=    0.0000 C=    0.0000
 XYZ=    7.7372   -2.4955    5.4840 Q=    0.4100 A=    0.0000 R=    0.0000 C=    0.0000
 XYZ=   -4.1092   -9.2672   -4.6106 Q=   -0.8200 A=    0.0000 R=    0.0000 C=    0.0000
 XYZ=   -4.4429   -8.4079   -4.2229 Q=    0.4100 A=    0.0000 R=    0.0000 C=    0.0000
 XYZ=   -4.8801   -9.8858   -4.7627 Q=    0.4100 A=    0.0000 R=    0.0000 C=    0.0000
 XYZ=    7.7698   -2.4658   -2.7567 Q=   -0.8200 A=    0.0000 R=    0.0000 C=    0.0000
 XYZ=    8.5640   -1.9453   -2.4429 Q=    0.4100 A=    0.0000 R=    0.0000 C=    0.0000
 XYZ=    7.5309   -3.1544   -2.0720 Q=    0.4100 A=    0.0000 R=    0.0000 C=    0.0000
 XYZ=   -8.7534    1.3398   -4.5712 Q=   -0.8200 A=    0.0000 R=    0.0000 C=    0.0000
 XYZ=   -9.0389    1.3883   -3.6140 Q=    0.4100 A=    0.0000 R=    0.0000 C=    0.0000
 XYZ=   -9.5084    0.9918   -5.1270 Q=    0.4100 A=    0.0000 R=    0.0000 C=    0.0000
 XYZ=   -0.3618    9.2792   -4.9084 Q=   -0.8200 A=    0.0000 R=    0.0000 C=    0.0000
 XYZ=   -0.6071   10.2335   -5.0789 Q=    0.4100 A=    0.0000 R=    0.0000 C=    0.0000
 XYZ=   -1.1927    8.7245   -4.8636 Q=    0.4100 A=    0.0000 R=    0.0000 C=    0.0000
 XYZ=   -5.9799   -6.8178    4.6036 Q=   -0.8200 A=    0.0000 R=    0.0000 C=    0.0000
 XYZ=   -6.8808   -7.0097    4.2142 Q=    0.4100 A=    0.0000 R=    0.0000 C=    0.0000
 XYZ=   -5.8004   -5.8350    4.5600 Q=    0.4100 A=    0.0000 R=    0.0000 C=    0.0000
 XYZ=   -9.2552    1.2757   -2.3948 Q=   -0.8200 A=    0.0000 R=    0.0000 C=    0.0000
 XYZ=  -10.2543    1.2334   -2.4089 Q=    0.4100 A=    0.0000 R=    0.0000 C=    0.0000
 XYZ=   -8.9623    2.0508   -1.8348 Q=    0.4100 A=    0.0000 R=    0.0000 C=    0.0000
 XYZ=    1.6498    9.7210    5.2133 Q=   -0.8200 A=    0.0000 R=    0.0000 C=    0.0000
 XYZ=    1.6680    8.7278    5.0984 Q=    0.4100 A=    0.0000 R=    0.0000 C=    0.0000
 XYZ=    2.4606   10.1209    4.7858 Q=    0.4100 A=    0.0000 R=    0.0000 C=    0.0000
 XYZ=   -3.9305   -9.3527   -0.8953 Q=   -0.8200 A=    0.0000 R=    0.0000 C=    0.0000
 XYZ=   -4.7413   -9.2614   -0.3171 Q=    0.4100 A=    0.0000 R=    0.0000 C=    0.0000
 XYZ=   -4.0933  -10.0541   -1.5892 Q=    0.4100 A=    0.0000 R=    0.0000 C=    0.0000
 XYZ=    6.8417   -6.5246    1.6233 Q=   -0.8200 A=    0.0000 R=    0.0000 C=    0.0000
 XYZ=    6.5532   -6.3308    0.6855 Q=    0.4100 A=    0.0000 R=    0.0000 C=    0.0000
 XYZ=    6.0387   -6.5605    2.2183 Q=    0.4100 A=    0.0000 R=    0.0000 C=    0.0000
 XYZ=    7.8235    7.0432    0.4109 Q=   -0.8200 A=    0.0000 R=    0.0000 C=    0.0000
 XYZ=    8.2934    7.8575    0.7519 Q=    0.4100 A=    0.0000 R=    0.0000 C=    0.0000
 XYZ=    7.6183    6.4322    1.1756 Q=    0.4100 A=    0.0000 R=    0.0000 C=    0.0000
 XYZ=   -1.5760    4.2749    9.3589 Q=   -0.8200 A=    0.0000 R=    0.0000 C=    0.0000
 XYZ=   -1.8603    5.2193    9.1933 Q=    0.4100 A=    0.0000 R=    0.0000 C=    0.0000
 XYZ=   -1.3339    3.8426    8.4903 Q=    0.4100 A=    0.0000 R=    0.0000 C=    0.0000
 XYZ=   -4.6809    4.0095    7.6983 Q=   -0.8200 A=    0.0000 R=    0.0000 C=    0.0000
 XYZ=   -5.2491    4.8278    7.7852 Q=    0.4100 A=    0.0000 R=    0.0000 C=    0.0000
 XYZ=   -3.7936    4.2595    7.3107 Q=    0.4100 A=    0.0000 R=    0.0000 C=    0.0000
 XYZ=    5.6846   -7.2588   -2.1131 Q=   -0.8200 A=    0.0000 R=    0.0000 C=    0.0000
 XYZ=    6.2755   -8.0493   -1.9519 Q=    0.4100 A=    0.0000 R=    0.0000 C=    0.0000
 XYZ=    5.9200   -6.8401   -2.9902 Q=    0.4100 A=    0.0000 R=    0.0000 C=    0.0000
 XYZ=    5.2733   -2.5290   -8.3950 Q=   -0.8200 A=    0.0000 R=    0.0000 C=    0.0000
 XYZ=    5.4580   -3.3138   -7.8033 Q=    0.4100 A=    0.0000 R=    0.0000 C=    0.0000
 XYZ=    4.6964   -1.8731   -7.9083 Q=    0.4100 A=    0.0000 R=    0.0000 C=    0.0000
 XYZ=   -1.0616   -8.4940   -7.1973 Q=   -0.8200 A=    0.0000 R=    0.0000 C=    0.0000
 XYZ=   -1.1848   -8.9401   -8.0838 Q=    0.4100 A=    0.0000 R=    0.0000 C=    0.0000
 XYZ=   -1.9454   -8.1658   -6.8637 Q=    0.4100 A=    0.0000 R=    0.0000 C=    0.0000
 XYZ=    1.6812   -5.9852    8.2736 Q=   -0.8200 A=    0.0000 R=    0.0000 C=    0.0000
 XYZ=    2.3269   -5.6503    7.5874 Q=    0.4100 A=    0.0000 R=    0.0000 C=    0.0000
 XYZ=    2.1624   -6.1399    9.1365 Q=    0.4100 A=    0.0000 R=    0.0000 C=    0.0000
 XYZ=    6.5292    4.4738    6.0990 Q=   -0.8200 A=    0.0000 R=    0.0000 C=    0.0000
 XYZ=    7.2761    5.1380    6.1298 Q=    0.4100 A=    0.0000 R=    0.0000 C=    0.0000
 XYZ=    6.9072    3.5492    6.0521 Q=    0.4100 A=    0.0000 R=    0.0000 C=    0.0000
 XYZ=   10.2195   -0.5731    1.1008 Q=   -0.8200 A=    0.0000 R=    0.0000 C=    0.0000
 XYZ=   10.2288   -0.4794    2.0964 Q=    0.4100 A=    0.0000 R=    0.0000 C=    0.0000
 XYZ=    9.2759   -0.5369    0.7714 Q=    0.4100 A=    0.0000 R=    0.0000 C=    0.0000
 XYZ=    8.1661   -4.6708    2.2439 Q=   -0.8200 A=    0.0000 R=    0.0000 C=    0.0000
 XYZ=    7.8351   -4.5182    3.1751 Q=    0.4100 A=    0.0000 R=    0.0000 C=    0.0000
 XYZ=    7.5759   -5.3349    1.7850 Q=    0.4100 A=    0.0000 R=    0.0000 C=    0.0000
 XYZ=    0.2320   -6.9841   -8.6077 Q=   -0.8200 A=    0.0000 R=    0.0000 C=    0.0000
 XYZ=    1.2048   -6.7862   -8.4876 Q=    0.4100 A=    0.0000 R=    0.0000 C=    0.0000
 XYZ=   -0.1108   -7.4707   -7.8041 Q=    0.4100 A=    0.0000 R=    0.0000 C=    0.0000
 XYZ=    6.3129   -6.3080   -4.2136 Q=   -0.8200 A=    0.0000 R=    0.0000 C=    0.0000
 XYZ=    6.2895   -5.3231   -4.3853 Q=    0.4100 A=    0.0000 R=    0.0000 C=    0.0000
 XYZ=    5.8933   -6.7904   -4.9825 Q=    0.4100 A=    0.0000 R=    0.0000 C=    0.0000
 XYZ=   -2.1008    6.5108    8.4308 Q=   -0.8200 A=    0.0000 R=    0.0000 C=    0.0000
 XYZ=   -2.1872    6.1217    7.5137 Q=    0.4100 A=    0.0000 R=    0.0000 C=    0.0000
 XYZ=   -3.0031    6.7870    8.7620 Q=    0.4100 A=    0.0000 R=    0.0000 C=    0.0000
 XYZ=  -10.9660   -1.1689   -2.6172 Q=   -0.8200 A=    0.0000 R=    0.0000 C=    0.0000
 XYZ=  -11.3196   -0.2347   -2.6634 Q=    0.4100 A=    0.0000 R=    0.0000 C=    0.0000
 XYZ=  -10.0007   -1.1473   -2.3566 Q=    0.4100 A=    0.0000 R=    0.0000 C=    0.0000
 XYZ=   -1.6952    1.3451  -11.2067 Q=   -0.8200 A=    0.0000 R=    0.0000 C=    0.0000
 XYZ=   -1.8657    1.3972  -10.2228 Q=    0.4100 A=    0.0000 R=    0.0000 C=    0.0000
 XYZ=   -1.5174    0.3954  -11.4643 Q=    0.4100 A=    0.0000 R=    0.0000 C=    0.0000
 XYZ=    7.7719   -0.3520    7.3855 Q=   -0.8200 A=    0.0000 R=    0.0000 C=    0.0000
 XYZ=    7.2380    0.4244    7.0505 Q=    0.4100 A=    0.0000 R=    0.0000 C=    0.0000
 XYZ=    8.4839   -0.0238    8.0062 Q=    0.4100 A=    0.0000 R=    0.0000 C=    0.0000
 XYZ=   -5.8724   -9.0866    0.3355 Q=   -0.8200 A=    0.0000 R=    0.0000 C=    0.0000
 XYZ=   -6.2762   -8.1928    0.5309 Q=    0.4100 A=    0.0000 R=    0.0000 C=    0.0000
 XYZ=   -5.7560   -9.5936    1.1896 Q=    0.4100 A=    0.0000 R=    0.0000 C=    0.0000
 XYZ=   -2.6766    9.8337    1.3329 Q=   -0.8200 A=    0.0000 R=    0.0000 C=    0.0000
 XYZ=   -3.3573    9.9357    2.0584 Q=    0.4100 A=    0.0000 R=    0.0000 C=    0.0000
 XYZ=   -3.1400    9.7421    0.4515 Q=    0.4100 A=    0.0000 R=    0.0000 C=    0.0000
 XYZ=    1.2046   -8.6041    4.7972 Q=   -0.8200 A=    0.0000 R=    0.0000 C=    0.0000
 XYZ=    0.3317   -8.4815    5.2696 Q=    0.4100 A=    0.0000 R=    0.0000 C=    0.0000
 XYZ=    1.0637   -9.1546    3.9743 Q=    0.4100 A=    0.0000 R=    0.0000 C=    0.0000
 XYZ=    1.8924    9.2183   -4.2696 Q=   -0.8200 A=    0.0000 R=    0.0000 C=    0.0000
 XYZ=    0.9140    9.2375   -4.4757 Q=    0.4100 A=    0.0000 R=    0.0000 C=    0.0000
 XYZ=    2.4128    9.2185   -5.1235 Q=    0.4100 A=    0.0000 R=    0.0000 C=    0.0000
 XYZ=   -2.2093    4.9194   -9.2522 Q=   -0.8200 A=    0.0000 R=    0.0000 C=    0.0000
 XYZ=   -1.8006    5.6454   -9.8054 Q=    0.4100 A=    0.0000 R=    0.0000 C=    0.0000
 XYZ=   -3.1044    4.6785   -9.6272 Q=    0.4100 A=    0.0000 R=    0.0000 C=    0.0000
 XYZ=   -6.2375    7.7114    2.1039 Q=   -0.8200 A=    0.0000 R=    0.0000 C=    0.0000
 XYZ=   -6.4442    6.7361    2.1823 Q=    0.4100 A=    0.0000 R=    0.0000 C=    0.0000
 XYZ=   -6.2425    8.1272    3.0134 Q=    0.4100 A=    0.0000 R=    0.0000 C=    0.0000
 XYZ=    2.3105    4.3694    9.2590 Q=   -0.8200 A=    0.0000 R=    0.0000 C=    0.0000
 XYZ=    1.4086    4.3075    9.6866 Q=    0.4100 A=    0.0000 R=    0.0000 C=    0.0000
 XYZ=    2.6570    3.4491    9.0772 Q=    0.4100 A=    0.0000 R=    0.0000 C=    0.0000
 XYZ=    1.7408   -1.7190  -10.6165 Q=   -0.8200 A=    0.0000 R=    0.0000 C=    0.0000
 XYZ=    2.4014   -2.4505  -10.7856 Q=    0.4100 A=    0.0000 R=    0.0000 C=    0.0000
 XYZ=    0.8500   -2.1181  -10.3991 Q=    0.4100 A=    0.0000 R=    0.0000 C=    0.0000
 XYZ=    9.6277    2.3102    4.2093 Q=   -0.8200 A=    0.0000 R=    0.0000 C=    0.0000
 XYZ=    8.8985    1.6816    3.9388 Q=    0.4100 A=    0.0000 R=    0.0000 C=    0.0000
 XYZ=   10.4786    1.7998    4.3339 Q=    0.4100 A=    0.0000 R=    0.0000 C=    0.0000
 XYZ=   -8.4996    3.4756   -6.0833 Q=   -0.8200 A=    0.0000 R=    0.0000 C=    0.0000
 XYZ=   -8.0754    3.3485   -6.9799 Q=    0.4100 A=    0.0000 R=    0.0000 C=    0.0000
 XYZ=   -8.3559    2.6567   -5.5275 Q=    0.4100 A=    0.0000 R=    0.0000 C=    0.0000
 XYZ=   -7.4045    4.1752    4.5825 Q=   -0.8200 A=    0.0000 R=    0.0000 C=    0.0000
 XYZ=   -6.9720    3.2907    4.7573 Q=    0.4100 A=    0.0000 R=    0.0000 C=    0.0000
 XYZ=   -6.8311    4.9057    4.9534 Q=    0.4100 A=    0.0000 R=    0.0000 C=    0.0000
 XYZ=    4.2320    0.6714   -8.8327 Q=   -0.8200 A=    0.0000 R=    0.0000 C=    0.0000
 XYZ=    5.2180    0.8345   -8.8689 Q=    0.4100 A=    0.0000 R=    0.0000 C=    0.0000
 XYZ=    3.9286    0.2705   -9.6972 Q=    0.4100 A=    0.0000 R=    0.0000 C=    0.0000
 XYZ=   -3.4757    8.7582    4.1045 Q=   -0.8200 A=    0.0000 R=    0.0000 C=    0.0000
 XYZ=   -2.9301    9.1572    4.8415 Q=    0.4100 A=    0.0000 R=    0.0000 C=    0.0000
 XYZ=   -3.7168    9.4704    3.4451 Q=    0.4100 A=    0.0000 R=    0.0000 C=    0.0000
 XYZ=   -1.1456   -8.2554    5.6215 Q=   -0.8200 A=    0.0000 R=    0.0000 C=    0.0000
 XYZ=   -1.0164   -7.8084    6.5068 Q=    0.4100 A=    0.0000 R=    0.0000 C=    0.0000
 XYZ=   -1.8088   -8.9978    5.7167 Q=    0.4100 A=    0.0000 R=    0.0000 C=    0.0000
 XYZ=    8.4662    6.5190   -1.7651 Q=   -0.8200 A=    0.0000 R=    0.0000 C=    0.0000
 XYZ=    7.5628    6.6113   -2.1841 Q=    0.4100 A=    0.0000 R=    0.0000 C=    0.0000
 XYZ=    8.4681    6.9725   -0.8738 Q=    0.4100 A=    0.0000 R=    0.0000 C=    0.0000
 XYZ=   -5.6759    2.0254    7.1205 Q=   -0.8200 A=    0.0000 R=    0.0000 C=    0.0000
 XYZ=   -5.8947    1.5916    7.9945 Q=    0.4100 A=    0.0000 R=    0.0000 C=    0.0000
 XYZ=   -5.3401    2.9531    7.2837 Q=    0.4100 A=    0.0000 R=    0.0000 C=    0.0000
 XYZ=   -6.4559   -2.9406   -9.0453 Q=   -0.8200 A=    0.0000 R=    0.0000 C=    0.0000
 XYZ=   -7.3383   -2.4827   -8.9375 Q=    0.4100 A=    0.0000 R=    0.0000 C=    0.0000
 XYZ=   -6.4779   -3.5187   -9.8610 Q=    0.4100 A=    0.0000 R=    0.0000 C=    0.0000
 XYZ=   -3.8923    9.4513   -5.8822 Q=   -0.8200 A=    0.0000 R=    0.0000 C=    0.0000
 XYZ=   -3.4626    8.7290   -5.3404 Q=    0.4100 A=    0.0000 R=    0.0000 C=    0.0000
 XYZ=   -3.3066    9.6773   -6.6606 Q=    0.4100 A=    0.0000 R=    0.0000 C=    0.0000
 XYZ=    8.7831    6.1097    4.0860 Q=   -0.8200 A=    0.0000 R=    0.0000 C=    0.0000
 XYZ=    9.4619    5.4117    4.3142 Q=    0.4100 A=    0.0000 R=    0.0000 C=    0.0000
 XYZ=    8.1162    5.7292    3.4453 Q=    0.4100 A=    0.0000 R=    0.0000 C=    0.0000
 XYZ=   -0.4769   -7.0502    7.5360 Q=   -0.8200 A=    0.0000 R=    0.0000 C=    0.0000
 XYZ=    0.3651   -6.5114    7.5638 Q=    0.4100 A=    0.0000 R=    0.0000 C=    0.0000
 XYZ=   -1.2656   -6.4405    7.6153 Q=    0.4100 A=    0.0000 R=    0.0000 C=    0.0000
 XYZ=   -1.5224  -10.7789    2.3091 Q=   -0.8200 A=    0.0000 R=    0.0000 C=    0.0000
 XYZ=   -0.7809  -10.2073    2.6605 Q=    0.4100 A=    0.0000 R=    0.0000 C=    0.0000
 XYZ=   -1.7968  -10.4503    1.4053 Q=    0.4100 A=    0.0000 R=    0.0000 C=    0.0000
 XYZ=   -7.1806    0.0653    6.7943 Q=   -0.8200 A=    0.0000 R=    0.0000 C=    0.0000
 XYZ=   -6.7988   -0.6613    6.2230 Q=    0.4100 A=    0.0000 R=    0.0000 C=    0.0000
 XYZ=   -6.7130    0.9265    6.5948 Q=    0.4100 A=    0.0000 R=    0.0000 C=    0.0000
 XYZ=   -7.5466    2.9468   -8.2910 Q=   -0.8200 A=    0.0000 R=    0.0000 C=    0.0000
 XYZ=   -7.7042    3.5925   -9.0383 Q=    0.4100 A=    0.0000 R=    0.0000 C=    0.0000
 XYZ=   -6.5691    2.9098   -8.0832 Q=    0.4100 A=    0.0000 R=    0.0000 C=    0.0000
 XYZ=   -3.7157    9.6223   -0.7899 Q=   -0.8200 A=    0.0000 R=    0.0000 C=    0.0000
 XYZ=   -3.8569   10.5199   -1.2078 Q=    0.4100 A=    0.0000 R=    0.0000 C=    0.0000
 XYZ=   -4.6016    9.2160   -0.5660 Q=    0.4100 A=    0.0000 R=    0.0000 C=    0.0000
 XYZ=    0.2519   11.5234   -1.1506 Q=   -0.8200 A=    0.0000 R=    0.0000 C=    0.0000
 XYZ=    0.7867   10.6888   -1.0182 Q=    0.4100 A=    0.0000 R=    0.0000 C=    0.0000
 XYZ=   -0.5082   11.5388   -0.5009 Q=    0.4100 A=    0.0000 R=    0.0000 C=    0.0000
 XYZ=   -5.6323    8.5547   -0.0296 Q=   -0.8200 A=    0.0000 R=    0.0000 C=    0.0000
 XYZ=   -6.3753    9.0730   -0.4533 Q=    0.4100 A=    0.0000 R=    0.0000 C=    0.0000
 XYZ=   -5.9328    8.2071    0.8586 Q=    0.4100 A=    0.0000 R=    0.0000 C=    0.0000
 XYZ=    2.7852    1.2870   10.8655 Q=   -0.8200 A=    0.0000 R=    0.0000 C=    0.0000
 XYZ=    2.9423    1.4967    9.9004 Q=    0.4100 A=    0.0000 R=    0.0000 C=    0.0000
 XYZ=    2.9037    0.3056   11.0168 Q=    0.4100 A=    0.0000 R=    0.0000 C=    0.0000
 XYZ=    6.7622    3.9343   -5.9610 Q=   -0.8200 A=    0.0000 R=    0.0000 C=    0.0000
 XYZ=    7.4028    4.7019   -5.9432 Q=    0.4100 A=    0.0000 R=    0.0000 C=    0.0000
 XYZ=    7.0700    3.2587   -6.6310 Q=    0.4100 A=    0.0000 R=    0.0000 C=    0.0000
 XYZ=   -5.7915    6.0030    5.4331 Q=   -0.8200 A=    0.0000 R=    0.0000 C=    0.0000
 XYZ=   -6.0691    6.8720    5.0232 Q=    0.4100 A=    0.0000 R=    0.0000 C=    0.0000
 XYZ=   -5.8546    6.0691    6.4289 Q=    0.4100 A=    0.0000 R=    0.0000 C=    0.0000
 XYZ=    8.8935    4.4573   -2.7939 Q=   -0.8200 A=    0.0000 R=    0.0000 C=    0.0000
 XYZ=    9.3825    3.7846   -2.2384 Q=    0.4100 A=    0.0000 R=    0.0000 C=    0.0000
 XYZ=    8.6162    5.2265   -2.2182 Q=    0.4100 A=    0.0000 R=    0.0000 C=    0.0000
 XYZ=    0.6200   -4.3103    9.4886 Q=   -0.8200 A=    0.0000 R=    0.0000 C=    0.0000
 XYZ=    1.1300   -5.0113    8.9900 Q=    0.4100 A=    0.0000 R=    0.0000 C=    0.0000
 XYZ=   -0.1327   -4.7384    9.9888 Q=    0.4100 A=    0.0000 R=    0.0000 C=    0.0000
 XYZ=    6.0967   -4.4438   -6.9481 Q=   -0.8200 A=    0.0000 R=    0.0000 C=    0.0000
 XYZ=    6.3352   -4.1826   -6.0127 Q=    0.4100 A=    0.0000 R=    0.0000 C=    0.0000
 XYZ=    6.9329   -4.5918   -7.4762 Q=    0.4100 A=    0.0000 R=    0.0000 C=    0.0000
 XYZ=   -9.0780   -6.1384   -0.0639 Q=   -0.8200 A=    0.0000 R=    0.0000 C=    0.0000
 XYZ=   -9.3955   -5.3134   -0.5315 Q=    0.4100 A=    0.0000 R=    0.0000 C=    0.0000
 XYZ=   -9.8509   -6.5833    0.3886 Q=    0.4100 A=    0.0000 R=    0.0000 C=    0.0000
 XYZ=   -7.8684   -7.0004    3.1340 Q=   -0.8200 A=    0.0000 R=    0.0000 C=    0.0000
 XYZ=   -7.4488   -7.1235    2.2347 Q=    0.4100 A=    0.0000 R=    0.0000 C=    0.0000
 XYZ=   -8.4237   -7.8022    3.3553 Q=    0.4100 A=    0.0000 R=    0.0000 C=    0.0000
 XYZ=   -5.2439  -10.0461    2.3394 Q=   -0.8200 A=    0.0000 R=    0.0000 C=    0.0000
 XYZ=   -4.7998   -9.2312    2.7120 Q=    0.4100 A=    0.0000 R=    0.0000 C=    0.0000
 XYZ=   -4.6085  -10.8176    2.3747 Q=    0.4100 A=    0.0000 R=    0.0000 C=    0.0000
 XYZ=    5.7514    2.1790    8.6679 Q=   -0.8200 A=    0.0000 R=    0.0000 C=    0.0000
 XYZ=    6.4727    1.7589    9.2186 Q=    0.4100 A=    0.0000 R=    0.0000 C=    0.0000
 XYZ=    5.8615    3.1729    8.6768 Q=    0.4100 A=    0.0000 R=    0.0000 C=    0.0000
 XYZ=   10.1099    2.7598   -1.6009 Q=   -0.8200 A=    0.0000 R=    0.0000 C=    0.0000
 XYZ=    9.6091    1.8976   -1.5234 Q=    0.4100 A=    0.0000 R=    0.0000 C=    0.0000
 XYZ=   10.5062    2.9959   -0.7137 Q=    0.4100 A=    0.0000 R=    0.0000 C=    0.0000
 XYZ=    5.9515    4.5734    8.3749 Q=   -0.8200 A=    0.0000 R=    0.0000 C=    0.0000
 XYZ=    6.7116    5.0164    8.8504 Q=    0.4100 A=    0.0000 R=    0.0000 C=    0.0000
 XYZ=    6.0545    4.7029    7.3887 Q=    0.4100 A=    0.0000 R=    0.0000 C=    0.0000
 XYZ=    3.5221   11.2065    2.2573 Q=   -0.8200 A=    0.0000 R=    0.0000 C=    0.0000
 XYZ=    2.7173   10.6550    2.0374 Q=    0.4100 A=    0.0000 R=    0.0000 C=    0.0000
 XYZ=    3.2935   12.1766    2.1766 Q=    0.4100 A=    0.0000 R=    0.0000 C=    0.0000
 XYZ=    9.6678   -1.2648   -2.0382 Q=   -0.8200 A=    0.0000 R=    0.0000 C=    0.0000
 XYZ=    9.4630   -0.3061   -1.8407 Q=    0.4100 A=    0.0000 R=    0.0000 C=    0.0000
 XYZ=   10.2972   -1.6203   -1.3472 Q=    0.4100 A=    0.0000 R=    0.0000 C=    0.0000
 XYZ=    6.4504   -1.9953    8.5949 Q=   -0.8200 A=    0.0000 R=    0.0000 C=    0.0000
 XYZ=    6.9550   -1.2961    8.0883 Q=    0.4100 A=    0.0000 R=    0.0000 C=    0.0000
 XYZ=    7.0962   -2.6187    9.0357 Q=    0.4100 A=    0.0000 R=    0.0000 C=    0.0000
 XYZ=    0.3378    1.6589   10.4569 Q=   -0.8200 A=    0.0000 R=    0.0000 C=    0.0000
 XYZ=    1.3073    1.4991   10.6430 Q=    0.4100 A=    0.0000 R=    0.0000 C=    0.0000
 XYZ=    0.1476    2.6398   10.4993 Q=    0.4100 A=    0.0000 R=    0.0000 C=    0.0000
 XYZ=   -4.0720   -8.2170   -8.7776 Q=   -0.8200 A=    0.0000 R=    0.0000 C=    0.0000
 XYZ=   -3.4048   -8.8280   -9.2036 Q=    0.4100 A=    0.0000 R=    0.0000 C=    0.0000
 XYZ=   -3.8589   -8.1164   -7.8057 Q=    0.4100 A=    0.0000 R=    0.0000 C=    0.0000
 XYZ=   -5.9103    8.2535    4.3225 Q=   -0.8200 A=    0.0000 R=    0.0000 C=    0.0000
 XYZ=   -6.3359    8.9795    4.8627 Q=    0.4100 A=    0.0000 R=    0.0000 C=    0.0000
 XYZ=   -4.9374    8.4523    4.2048 Q=    0.4100 A=    0.0000 R=    0.0000 C=    0.0000
 XYZ=   -1.3920   -0.9468  -11.6670 Q=   -0.8200 A=    0.0000 R=    0.0000 C=    0.0000
 XYZ=   -0.9258   -1.7739  -11.3529 Q=    0.4100 A=    0.0000 R=    0.0000 C=    0.0000
 XYZ=   -2.3815   -1.0812  -11.6134 Q=    0.4100 A=    0.0000 R=    0.0000 C=    0.0000
 XYZ=    8.2572    2.7339    6.2185 Q=   -0.8200 A=    0.0000 R=    0.0000 C=    0.0000
 XYZ=    8.8226    2.4563    5.4418 Q=    0.4100 A=    0.0000 R=    0.0000 C=    0.0000
 XYZ=    8.8436    2.9297    7.0046 Q=    0.4100 A=    0.0000 R=    0.0000 C=    0.0000
 XYZ=   -4.2037   -6.0853   -9.5056 Q=   -0.8200 A=    0.0000 R=    0.0000 C=    0.0000
 XYZ=   -3.5398   -6.0146  -10.2502 Q=    0.4100 A=    0.0000 R=    0.0000 C=    0.0000
 XYZ=   -4.1931   -7.0147   -9.1368 Q=    0.4100 A=    0.0000 R=    0.0000 C=    0.0000
 XYZ=   -9.7332    2.5385    1.9114 Q=   -0.8200 A=    0.0000 R=    0.0000 C=    0.0000
 XYZ=  -10.6603    2.6466    1.5523 Q=    0.4100 A=    0.0000 R=    0.0000 C=    0.0000
 XYZ=   -9.5154    1.5652    1.9842 Q=    0.4100 A=    0.0000 R=    0.0000 C=    0.0000
 XYZ=  -11.1413   -2.5673    1.0271 Q=   -0.8200 A=    0.0000 R=    0.0000 C=    0.0000
 XYZ=  -10.3894   -1.9455    0.8078 Q=    0.4100 A=    0.0000 R=    0.0000 C=    0.0000
 XYZ=  -10.7863   -3.3547    1.5311 Q=    0.4100 A=    0.0000 R=    0.0000 C=    0.0000
 XYZ=   -3.2320   -9.3251    5.6802 Q=   -0.8200 A=    0.0000 R=    0.0000 C=    0.0000
 XYZ=   -3.7505   -8.9582    4.9079 Q=    0.4100 A=    0.0000 R=    0.0000 C=    0.0000
 XYZ=   -3.5102   -8.8588    6.5200 Q=    0.4100 A=    0.0000 R=    0.0000 C=    0.0000
 XYZ=   -7.0613   -7.1091   -6.7185 Q=   -0.8200 A=    0.0000 R=    0.0000 C=    0.0000
 XYZ=   -7.6789   -6.3876   -7.0316 Q=    0.4100 A=    0.0000 R=    0.0000 C=    0.0000
 XYZ=   -7.5723   -7.7700   -6.1688 Q=    0.4100 A=    0.0000 R=    0.0000 C=    0.0000
 XYZ=   -2.4714   -5.8337    8.1950 Q=   -0.8200 A=    0.0000 R=    0.0000 C=    0.0000
 XYZ=   -3.0170   -6.6703    8.2455 Q=    0.4100 A=    0.0000 R=    0.0000 C=    0.0000
 XYZ=   -2.0939   -5.6271    9.0977 Q=    0.4100 A=    0.0000 R=    0.0000 C=    0.0000
 XYZ=   -5.3973    0.4814  -11.0878 Q=   -0.8200 A=    0.0000 R=    0.0000 C=    0.0000
 XYZ=   -5.7954    0.1036  -10.2518 Q=    0.4100 A=    0.0000 R=    0.0000 C=    0.0000
 XYZ=   -6.0253    0.3344  -11.8520 Q=    0.4100 A=    0.0000 R=    0.0000 C=    0.0000
 XYZ=   -0.0016   11.8776    2.3498 Q=   -0.8200 A=    0.0000 R=    0.0000 C=    0.0000
 XYZ=   -0.6287   12.0296    1.5857 Q=    0.4100 A=    0.0000 R=    0.0000 C=    0.0000
 XYZ=    0.7146   11.2378    2.0709 Q=    0.4100 A=    0.0000 R=    0.0000 C=    0.0000
 XYZ=   -3.8176  -10.9609   -2.7281 Q=   -0.8200 A=    0.0000 R=    0.0000 C=    0.0000
 XYZ=   -4.6794  -11.4618   -2.8080 Q=    0.4100 A=    0.0000 R=    0.0000 C=    0.0000
 XYZ=   -3.7050  -10.3626   -3.5214 Q=    0.4100 A=    0.0000 R=    0.0000 C=    0.0000
 XYZ=    3.3165   -0.0103  -10.8469 Q=   -0.8200 A=    0.0000 R=    0.0000 C=    0.0000
 XYZ=    2.8070    0.8029  -11.1283 Q=    0.4100 A=    0.0000 R=    0.0000 C=    0.0000
 XYZ=    2.6762   -0.7511  -10.6436 Q=    0.4100 A=    0.0000 R=    0.0000 C=    0.0000
 XYZ=    0.5062    4.8641  -11.1728 Q=   -0.8200 A=    0.0000 R=    0.0000 C=    0.0000
 XYZ=    0.0464    4.1909  -11.7520 Q=    0.4100 A=    0.0000 R=    0.0000 C=    0.0000
 XYZ=    0.9219    4.4015  -10.3897 Q=    0.4100 A=    0.0000 R=    0.0000 C=    0.0000
 XYZ=   -1.4988   11.8903    0.6830 Q=   -0.8200 A=    0.0000 R=    0.0000 C=    0.0000
 XYZ=   -1.9540   11.0875    1.0684 Q=    0.4100 A=    0.0000 R=    0.0000 C=    0.0000
 XYZ=   -2.1806   12.4931    0.2686 Q=    0.4100 A=    0.0000 R=    0.0000 C=    0.0000
 XYZ=    2.0087   -5.4063  -10.6111 Q=   -0.8200 A=    0.0000 R=    0.0000 C=    0.0000
 XYZ=    2.5779   -4.5991  -10.7679 Q=    0.4100 A=    0.0000 R=    0.0000 C=    0.0000
 XYZ=    2.1955   -5.7739   -9.6999 Q=    0.4100 A=    0.0000 R=    0.0000 C=    0.0000
 XYZ=   -4.3011    4.0585   -9.9652 Q=   -0.8200 A=    0.0000 R=    0.0000 C=    0.0000
 XYZ=   -4.8090    4.7760  -10.4420 Q=    0.4100 A=    0.0000 R=    0.0000 C=    0.0000
 XYZ=   -4.1649    3.2817  -10.5802 Q=    0.4100 A=    0.0000 R=    0.0000 C=    0.0000
 XYZ=    2.3899    2.2763  -11.5903 Q=   -0.8200 A=    0.0000 R=    0.0000 C=    0.0000
 XYZ=    2.0361    2.5230  -10.6881 Q=    0.4100 A=    0.0000 R=    0.0000 C=    0.0000
 XYZ=    3.3059    2.6606  -11.7056 Q=    0.4100 A=    0.0000 R=    0.0000 C=    0.0000
 XYZ=    5.1230   -5.9820   -8.4162 Q=   -0.8200 A=    0.0000 R=    0.0000 C=    0.0000
 XYZ=    5.9307   -6.0864   -8.9965 Q=    0.4100 A=    0.0000 R=    0.0000 C=    0.0000
 XYZ=    5.3209   -5.3304   -7.6838 Q=    0.4100 A=    0.0000 R=    0.0000 C=    0.0000
 XYZ=   -0.9281  -11.4289   -0.5005 Q=   -0.8200 A=    0.0000 R=    0.0000 C=    0.0000
 XYZ=   -0.5933  -12.2411   -0.0227 Q=    0.4100 A=    0.0000 R=    0.0000 C=    0.0000
 XYZ=   -1.4554  -11.7081   -1.3030 Q=    0.4100 A=    0.0000 R=    0.0000 C=    0.0000
 XYZ=   -3.8193    3.1879    9.7165 Q=   -0.8200 A=    0.0000 R=    0.0000 C=    0.0000
 XYZ=   -2.8855    3.5355    9.6309 Q=    0.4100 A=    0.0000 R=    0.0000 C=    0.0000
 XYZ=   -4.3175    3.3580    8.8663 Q=    0.4100 A=    0.0000 R=    0.0000 C=    0.0000
 XYZ=    2.9083   -6.6766   -8.8022 Q=   -0.8200 A=    0.0000 R=    0.0000 C=    0.0000
 XYZ=    2.9810   -7.6733   -8.7667 Q=    0.4100 A=    0.0000 R=    0.0000 C=    0.0000
 XYZ=    3.8232   -6.2742   -8.7688 Q=    0.4100 A=    0.0000 R=    0.0000 C=    0.0000
 XYZ=   -8.2789    0.7506   -8.9803 Q=   -0.8200 A=    0.0000 R=    0.0000 C=    0.0000
 XYZ=   -8.2698    0.7982   -9.9791 Q=    0.4100 A=    0.0000 R=    0.0000 C=    0.0000
 XYZ=   -7.8510    1.5722   -8.6035 Q=    0.4100 A=    0.0000 R=    0.0000 C=    0.0000
 XYZ=    5.0661   -1.2692   10.3023 Q=   -0.8200 A=    0.0000 R=    0.0000 C=    0.0000
 XYZ=    5.6639   -1.5711    9.5596 Q=    0.4100 A=    0.0000 R=    0.0000 C=    0.0000
 XYZ=    5.6082   -0.7898   10.9924 Q=    0.4100 A=    0.0000 R=    0.0000 C=    0.0000
 XYZ=   -8.8788   -4.8898    3.8098 Q=   -0.8200 A=    0.0000 R=    0.0000 C=    0.0000
 XYZ=   -8.4904   -5.7680    3.5306 Q=    0.4100 A=    0.0000 R=    0.0000 C=    0.0000
 XYZ=   -9.3309   -4.9921    4.6959 Q=    0.4100 A=    0.0000 R=    0.0000 C=    0.0000
 XYZ=    8.3881   -6.7398   -3.0556 Q=   -0.8200 A=    0.0000 R=    0.0000 C=    0.0000
 XYZ=    7.5678   -6.3038   -3.4259 Q=    0.4100 A=    0.0000 R=    0.0000 C=    0.0000
 XYZ=    9.1201   -6.7047   -3.7360 Q=    0.4100 A=    0.0000 R=    0.0000 C=    0.0000
 XYZ=   -3.7089   -1.5961  -11.3949 Q=   -0.8200 A=    0.0000 R=    0.0000 C=    0.0000
 XYZ=   -4.2787   -0.7813  -11.5018 Q=    0.4100 A=    0.0000 R=    0.0000 C=    0.0000
 XYZ=   -4.2421   -2.4089  -11.6297 Q=    0.4100 A=    0.0000 R=    0.0000 C=    0.0000
 XYZ=   10.9080    3.2536    0.7452 Q=   -0.8200 A=    0.0000 R=    0.0000 C=    0.0000
 XYZ=   10.1789    3.6353    1.3135 Q=    0.4100 A=    0.0000 R=    0.0000 C=    0.0000
 XYZ=   11.6732    3.8964    0.7087 Q=    0.4100 A=    0.0000 R=    0.0000 C=    0.0000
 XYZ=   -0.0346    7.9474    8.5151 Q=   -0.8200 A=    0.0000 R=    0.0000 C=    0.0000
 XYZ=   -0.8771    7.4228    8.3928 Q=    0.4100 A=    0.0000 R=    0.0000 C=    0.0000
 XYZ=    0.6823    7.3484    8.8718 Q=    0.4100 A=    0.0000 R=    0.0000 C=    0.0000
 XYZ=   -2.0836    9.9930   -7.4391 Q=   -0.8200 A=    0.0000 R=    0.0000 C=    0.0000
 XYZ=   -1.7046    9.2585   -6.8762 Q=    0.4100 A=    0.0000 R=    0.0000 C=    0.0000
 XYZ=   -1.3757   10.6770   -7.6152 Q=    0.4100 A=    0.0000 R=    0.0000 C=    0.0000
 XYZ=    0.3851    3.9964   10.4714 Q=   -0.8200 A=    0.0000 R=    0.0000 C=    0.0000
 XYZ=    0.3784    4.4068   11.3833 Q=    0.4100 A=    0.0000 R=    0.0000 C=    0.0000
 XYZ=   -0.4377    4.2734    9.9752 Q=    0.4100 A=    0.0000 R=    0.0000 C=    0.0000
 XYZ=    1.4448   -2.9349   11.2958 Q=   -0.8200 A=    0.0000 R=    0.0000 C=    0.0000
 XYZ=    1.1929   -3.4739   10.4920 Q=    0.4100 A=    0.0000 R=    0.0000 C=    0.0000
 XYZ=    0.6571   -2.3973   11.5968 Q=    0.4100 A=    0.0000 R=    0.0000 C=    0.0000
 XYZ=    9.9497   -5.3360    0.8680 Q=   -0.8200 A=    0.0000 R=    0.0000 C=    0.0000
 XYZ=    9.2830   -4.9925    1.5295 Q=    0.4100 A=    0.0000 R=    0.0000 C=    0.0000
 XYZ=    9.5978   -5.2044   -0.0588 Q=    0.4100 A=    0.0000 R=    0.0000 C=    0.0000
 XYZ=    1.5483    6.6369    9.6072 Q=   -0.8200 A=    0.0000 R=    0.0000 C=    0.0000
 XYZ=    1.4350    6.7838   10.5899 Q=    0.4100 A=    0.0000 R=    0.0000 C=    0.0000
 XYZ=    2.0223    5.7701    9.4522 Q=    0.4100 A=    0.0000 R=    0.0000 C=    0.0000
 XYZ=   -0.1396    9.8366    6.9471 Q=   -0.8200 A=    0.0000 R=    0.0000 C=    0.0000
 XYZ=    0.5939    9.8230    6.2674 Q=    0.4100 A=    0.0000 R=    0.0000 C=    0.0000
 XYZ=   -0.0464    9.0471    7.5537 Q=    0.4100 A=    0.0000 R=    0.0000 C=    0.0000
 XYZ=    5.9114   10.7894   -1.0264 Q=   -0.8200 A=    0.0000 R=    0.0000 C=    0.0000
 XYZ=    5.8607    9.9187   -1.5157 Q=    0.4100 A=    0.0000 R=    0.0000 C=    0.0000
 XYZ=    6.6957   11.3133   -1.3587 Q=    0.4100 A=    0.0000 R=    0.0000 C=    0.0000
 XYZ=   -1.3174  -10.9243   -6.7813 Q=   -0.8200 A=    0.0000 R=    0.0000 C=    0.0000
 XYZ=   -1.2468   -9.9359   -6.6467 Q=    0.4100 A=    0.0000 R=    0.0000 C=    0.0000
 XYZ=   -1.6813  -11.1112   -7.6938 Q=    0.4100 A=    0.0000 R=    0.0000 C=    0.0000
 XYZ=   -8.4520   -1.5391   -9.0550 Q=   -0.8200 A=    0.0000 R=    0.0000 C=    0.0000
 XYZ=   -9.3840   -1.8032   -8.8068 Q=    0.4100 A=    0.0000 R=    0.0000 C=    0.0000
 XYZ=   -8.3461   -0.5504   -8.9483 Q=    0.4100 A=    0.0000 R=    0.0000 C=    0.0000
 XYZ=   -3.8122    2.2042  -11.2736 Q=   -0.8200 A=    0.0000 R=    0.0000 C=    0.0000
 XYZ=   -4.5145    1.4940  -11.3240 Q=    0.4100 A=    0.0000 R=    0.0000 C=    0.0000
 XYZ=   -2.9070    1.7819  -11.3228 Q=    0.4100 A=    0.0000 R=    0.0000 C=    0.0000
 XYZ=    3.8531   11.2761   -0.1123 Q=   -0.8200 A=    0.0000 R=    0.0000 C=    0.0000
 XYZ=    4.0238   11.1742    0.8678 Q=    0.4100 A=    0.0000 R=    0.0000 C=    0.0000
 XYZ=    4.7160   11.1943   -0.6111 Q=    0.4100 A=    0.0000 R=    0.0000 C=    0.0000
 XYZ=   -6.0066   -4.7199  -10.6192 Q=   -0.8200 A=    0.0000 R=    0.0000 C=    0.0000
 XYZ=   -5.2503   -5.2329  -10.2131 Q=    0.4100 A=    0.0000 R=    0.0000 C=    0.0000
 XYZ=   -6.6517   -5.3563  -11.0422 Q=    0.4100 A=    0.0000 R=    0.0000 C=    0.0000
 XYZ=    7.2772   -1.0836   -8.3959 Q=   -0.8200 A=    0.0000 R=    0.0000 C=    0.0000
 XYZ=    7.5226   -0.8102   -7.4658 Q=    0.4100 A=    0.0000 R=    0.0000 C=    0.0000
 XYZ=    6.3387   -1.4288   -8.4052 Q=    0.4100 A=    0.0000 R=    0.0000 C=    0.0000
 XYZ=   -2.4357   -6.0610  -11.2359 Q=   -0.8200 A=    0.0000 R=    0.0000 C=    0.0000
 XYZ=   -2.6143   -6.0671  -12.2198 Q=    0.4100 A=    0.0000 R=    0.0000 C=    0.0000
 XYZ=   -1.6556   -5.4659  -11.0424 Q=    0.4100 A=    0.0000 R=    0.0000 C=    0.0000
 XYZ=   -0.6249   -7.7353  -10.7089 Q=   -0.8200 A=    0.0000 R=    0.0000 C=    0.0000
 XYZ=   -1.5123   -7.3384  -10.9436 Q=    0.4100 A=    0.0000 R=    0.0000 C=    0.0000
 XYZ=   -0.2673   -7.2901   -9.8879 Q=    0.4100 A=    0.0000 R=    0.0000 C=    0.0000
 XYZ=    8.1252   -0.4262   -6.2187 Q=   -0.8200 A=    0.0000 R=    0.0000 C=    0.0000
 XYZ=    8.4544    0.5011   -6.0400 Q=    0.4100 A=    0.0000 R=    0.0000 C=    0.0000
 XYZ=    8.8517   -1.0827   -6.0158 Q=    0.4100 A=    0.0000 R=    0.0000 C=    0.0000
 XYZ=    7.3781    9.6152    4.0603 Q=   -0.8200 A=    0.0000 R=    0.0000 C=    0.0000
 XYZ=    6.8941    8.7606    4.2484 Q=    0.4100 A=    0.0000 R=    0.0000 C=    0.0000
 XYZ=    6.7278   10.3021    3.7357 Q=    0.4100 A=    0.0000 R=    0.0000 C=    0.0000
 XYZ=   -6.0375   -6.9381    7.0505 Q=   -0.8200 A=    0.0000 R=    0.0000 C=    0.0000
 XYZ=   -6.0723   -7.1711    6.0787 Q=    0.4100 A=    0.0000 R=    0.0000 C=    0.0000
 XYZ=   -6.3054   -5.9825    7.1739 Q=    0.4100 A=    0.0000 R=    0.0000 C=    0.0000
 XYZ=    3.0220   -1.1073   11.2557 Q=   -0.8200 A=    0.0000 R=    0.0000 C=    0.0000
 XYZ=    2.4136   -1.8938   11.1493 Q=    0.4100 A=    0.0000 R=    0.0000 C=    0.0000
 XYZ=    3.8972   -1.3006   10.8123 Q=    0.4100 A=    0.0000 R=    0.0000 C=    0.0000
 XYZ=   -4.5201   10.2566    2.8139 Q=   -0.8200 A=    0.0000 R=    0.0000 C=    0.0000
 XYZ=   -5.2991    9.9938    2.2446 Q=    0.4100 A=    0.0000 R=    0.0000 C=    0.0000
 XYZ=   -4.7370   11.0989    3.3073 Q=    0.4100 A=    0.0000 R=    0.0000 C=    0.0000
 XYZ=    6.4279    1.0854   -8.7896 Q=   -0.8200 A=    0.0000 R=    0.0000 C=    0.0000
 XYZ=    7.0850    1.7848   -8.5083 Q=    0.4100 A=    0.0000 R=    0.0000 C=    0.0000
 XYZ=    6.8752    0.1910   -8.7952 Q=    0.4100 A=    0.0000 R=    0.0000 C=    0.0000
 XYZ=   11.2251   -2.0038   -0.3057 Q=   -0.8200 A=    0.0000 R=    0.0000 C=    0.0000
 XYZ=   11.4532   -2.8851    0.1080 Q=    0.4100 A=    0.0000 R=    0.0000 C=    0.0000
 XYZ=   10.7575   -1.4307    0.3673 Q=    0.4100 A=    0.0000 R=    0.0000 C=    0.0000
 XYZ=    9.8739    4.0948   -4.7591 Q=   -0.8200 A=    0.0000 R=    0.0000 C=    0.0000
 XYZ=    9.4673    4.3535   -3.8829 Q=    0.4100 A=    0.0000 R=    0.0000 C=    0.0000
 XYZ=   10.8705    4.1432   -4.6913 Q=    0.4100 A=    0.0000 R=    0.0000 C=    0.0000
 XYZ=  -11.1703    0.2050    3.1906 Q=   -0.8200 A=    0.0000 R=    0.0000 C=    0.0000
 XYZ=  -11.3066    1.0812    3.6528 Q=    0.4100 A=    0.0000 R=    0.0000 C=    0.0000
 XYZ=  -10.1979    0.0800    2.9933 Q=    0.4100 A=    0.0000 R=    0.0000 C=    0.0000
 XYZ=    4.4569    4.8398   10.1647 Q=   -0.8200 A=    0.0000 R=    0.0000 C=    0.0000
 XYZ=    3.5112    4.6191    9.9258 Q=    0.4100 A=    0.0000 R=    0.0000 C=    0.0000
 XYZ=    5.0199    4.8311    9.3383 Q=    0.4100 A=    0.0000 R=    0.0000 C=    0.0000
 XYZ=   -2.1037   10.2730    5.5745 Q=   -0.8200 A=    0.0000 R=    0.0000 C=    0.0000
 XYZ=   -1.3334   10.2794    6.2122 Q=    0.4100 A=    0.0000 R=    0.0000 C=    0.0000
 XYZ=   -2.9488   10.4717    6.0708 Q=    0.4100 A=    0.0000 R=    0.0000 C=    0.0000
 XYZ=  -11.1673   -1.4976   -6.4676 Q=   -0.8200 A=    0.0000 R=    0.0000 C=    0.0000
 XYZ=  -10.6116   -0.7025   -6.2244 Q=    0.4100 A=    0.0000 R=    0.0000 C=    0.0000
 XYZ=  -12.1079   -1.2061   -6.6415 Q=    0.4100 A=    0.0000 R=    0.0000 C=    0.0000
 XYZ=   -9.7381    3.7901    3.9085 Q=   -0.8200 A=    0.0000 R=    0.0000 C=    0.0000
 XYZ=   -9.6239    3.4243    2.9848 Q=    0.4100 A=    0.0000 R=    0.0000 C=    0.0000
 XYZ=   -8.8482    4.0710    4.2680 Q=    0.4100 A=    0.0000 R=    0.0000 C=    0.0000
 XYZ=   -0.3801   -4.9110  -11.4769 Q=   -0.8200 A=    0.0000 R=    0.0000 C=    0.0000
 XYZ=    0.4639   -5.3545  -11.1752 Q=    0.4100 A=    0.0000 R=    0.0000 C=    0.0000
 XYZ=   -0.4107   -4.8976  -12.4763 Q=    0.4100 A=    0.0000 R=    0.0000 C=    0.0000
 XYZ=   -1.1500    0.5253   12.0225 Q=   -0.8200 A=    0.0000 R=    0.0000 C=    0.0000
 XYZ=   -2.0958    0.7604   11.7983 Q=    0.4100 A=    0.0000 R=    0.0000 C=    0.0000
 XYZ=   -0.5297    1.0325   11.4241 Q=    0.4100 A=    0.0000 R=    0.0000 C=    0.0000
 XYZ=   11.6706    1.0860    0.4980 Q=   -0.8200 A=    0.0000 R=    0.0000 C=    0.0000
 XYZ=   10.9858    0.4251    0.8052 Q=    0.4100 A=    0.0000 R=    0.0000 C=    0.0000
 XYZ=   11.3629    2.0116    0.7185 Q=    0.4100 A=    0.0000 R=    0.0000 C=    0.0000
 XYZ=    0.8220   -0.6207  -12.5659 Q=   -0.8200 A=    0.0000 R=    0.0000 C=    0.0000
 XYZ=    1.4956   -0.9700  -11.9145 Q=    0.4100 A=    0.0000 R=    0.0000 C=    0.0000
 XYZ=   -0.0852   -0.6316  -12.1452 Q=    0.4100 A=    0.0000 R=    0.0000 C=    0.0000
 XYZ=    9.1125    1.6589   -5.8090 Q=   -0.8200 A=    0.0000 R=    0.0000 C=    0.0000
 XYZ=    9.1193    2.5064   -5.2783 Q=    0.4100 A=    0.0000 R=    0.0000 C=    0.0000
 XYZ=    9.9145    1.1106   -5.5716 Q=    0.4100 A=    0.0000 R=    0.0000 C=    0.0000
 XYZ=  -10.5969    0.7015   -6.0292 Q=   -0.8200 A=    0.0000 R=    0.0000 C=    0.0000
 XYZ=  -11.3270    1.0718   -5.4547 Q=    0.4100 A=    0.0000 R=    0.0000 C=    0.0000
 XYZ=  -10.4360    1.3166   -6.8011 Q=    0.4100 A=    0.0000 R=    0.0000 C=    0.0000
 XYZ=   -7.9001  -10.1880    0.1168 Q=   -0.8200 A=    0.0000 R=    0.0000 C=    0.0000
 XYZ=   -8.6312   -9.6403   -0.2901 Q=    0.4100 A=    0.0000 R=    0.0000 C=    0.0000
 XYZ=   -7.0281   -9.7096    0.0131 Q=    0.4100 A=    0.0000 R=    0.0000 C=    0.0000
 XYZ=  -12.1704   -2.5933   -1.1051 Q=   -0.8200 A=    0.0000 R=    0.0000 C=    0.0000
 XYZ=  -11.6510   -2.0318   -1.7493 Q=    0.4100 A=    0.0000 R=    0.0000 C=    0.0000
 XYZ=  -11.7035   -2.6042   -0.2208 Q=    0.4100 A=    0.0000 R=    0.0000 C=    0.0000
[...]
    39  O    0.000002   0.000019   0.000000   0.000000   0.000000   0.000022
    40  H    0.000005  -0.000016   0.000000   0.000000   0.000000  -0.000001
    41  H    0.000000   0.000000   0.000000   0.000000   0.000000  -0.000001
    42  O    0.000146   0.000007   0.000000   0.000000   0.000000   0.000000
    43  H   -0.000077   0.000001   0.000000   0.000000   0.000000   0.000000
    44  H    0.000009   0.000000   0.000000   0.000000   0.000000   0.000000
    45  O    0.000002   0.000001  -0.182156   0.003716   0.003708   0.000000
    46  H   -0.000001   0.000000   0.009419   0.000104  -0.000371   0.000000
    47  H    0.000000   0.000000   0.097915  -0.000383  -0.003460   0.000000
    48  O    0.000000   0.000000   0.000000   0.000000   0.000000   0.000000
    49  H    0.000000   0.000000   0.000000   0.000000   0.000000   0.000000
    50  H    0.000000   0.000000   0.000000   0.000000   0.000000   0.000000
              31         32         33         34         35         36
     1  C    0.000031   0.000151   0.000458  -0.000134  -0.000034   0.002175
     2  H   -0.000138   0.000000   0.000007  -0.000001   0.000000  -0.000001
     3  H    0.000000   0.000000   0.000000   0.000000   0.000000   0.000000
     4  C   -0.000612  -0.000031   0.000241   0.004142  -0.000060  -0.000862
     5  H    0.000000   0.000000   0.000000   0.000000   0.000000   0.000000
     6  C    0.000581  -0.000115  -0.005631  -0.001851   0.000139  -0.000443
     7  H    0.000000   0.000000  -0.000010  -0.000010   0.000000  -0.000001
     8  O   -0.000071   0.000001  -0.003318   0.001562   0.000050  -0.000085
     9  O    0.000000   0.000000  -0.033982   0.029882   0.000470   0.000000
    10  H    0.000000   0.000000   0.003589   0.000582   0.000013  -0.000003
    11  H    0.000000   0.000000  -0.005443  -0.002360   0.000029   0.000000
    12  O    0.000977  -0.000432   0.000000   0.000000   0.000000  -0.000285
    13  H   -0.000005   0.000004   0.000000   0.000000   0.000000  -0.000005
    14  H   -0.000072  -0.000002   0.000000   0.000000   0.000000   0.000037
    15  O   -0.000019  -0.000013   0.000000   0.000000   0.000000  -0.000152
    16  H    0.000000   0.000000   0.000000   0.000000   0.000000  -0.000001
    17  H    0.000000   0.000000   0.000000   0.000000   0.000000   0.000022
    18  O    0.011360   0.000768   0.000028   0.000012   0.000000  -0.000139
    19  H   -0.000293  -0.000011   0.000000   0.000000   0.000000   0.000100
    20  H   -0.000265  -0.000007   0.000023  -0.000010   0.000000   0.000011
    21  O    0.060538   0.003239   0.000000   0.000000   0.000000  -0.004402
    22  H   -0.002426  -0.000403   0.000000   0.000000   0.000000   0.000054
    23  H   -0.000187  -0.000205   0.000000   0.000000   0.000000   0.000213
    24  O   -0.000006   0.000007   0.000000   0.000000   0.000000   0.002611
    25  H    0.000000   0.000000   0.000000   0.000000   0.000000   0.000069
    26  H   -0.000002  -0.000001   0.000000   0.000000   0.000000   0.001118
    27  O    0.000000   0.000000  -0.005161  -0.002597   0.000115   0.000000
    28  H    0.000000   0.000000   0.000292  -0.000015  -0.000014   0.000000
    29  H    0.000000   0.000000  -0.002022   0.000957  -0.000126   0.000000
    30  O    0.130776   0.208645   0.000000   0.000000   0.000000  -0.056083
    31  H    0.214408  -0.010034   0.000000   0.000000   0.000000   0.000149
    32  H   -0.010034   0.192696   0.000000   0.000000   0.000000  -0.000326
    33  O    0.000000   0.000000   8.965151   0.135079   0.198310   0.000000
    34  H    0.000000   0.000000   0.135079   0.202180  -0.001980   0.000000
    35  H    0.000000   0.000000   0.198310  -0.001980   0.184845   0.000000
    36  O    0.000149  -0.000326   0.000000   0.000000   0.000000   8.824672
    37  H    0.000044   0.000028   0.000000   0.000000   0.000000   0.230851
    38  H    0.000696  -0.005429   0.000000   0.000000   0.000000   0.157795
    39  O   -0.000010   0.000001   0.000000   0.000000   0.000000   0.000009
    40  H    0.000000   0.000000   0.000000   0.000000   0.000000   0.000002
    41  H    0.000000   0.000000   0.000000   0.000000   0.000000   0.000001
    42  O    0.000000   0.000000   0.000000   0.000000   0.000000   0.000000
    43  H    0.000000   0.000000   0.000000   0.000000   0.000000   0.000000
    44  H    0.000000   0.000000   0.000000   0.000000   0.000000   0.000000
    45  O    0.000000   0.000000  -0.000058   0.000016   0.000001   0.000000
    46  H    0.000000   0.000000   0.000001   0.000000   0.000000   0.000000
    47  H    0.000000   0.000000  -0.000007  -0.000018   0.000000   0.000000
    48  O    0.000000   0.000000   0.000000   0.000000   0.000000   0.000000
    49  H    0.000000   0.000000   0.000000   0.000000   0.000000   0.000000
    50  H    0.000000   0.000000   0.000000   0.000000   0.000000   0.000000
              37         38         39         40         41         42
     1  C   -0.000144   0.000246  -0.003710  -0.000025   0.000034  -0.003486
     2  H    0.000000   0.000000   0.000001   0.000001   0.000000  -0.000001
     3  H    0.000000   0.000000  -0.000076  -0.000020   0.000000  -0.000081
     4  C    0.000149  -0.000259   0.005023  -0.000010  -0.000161  -0.007809
     5  H    0.000000   0.000000   0.000016   0.000023   0.000000   0.000451
     6  C   -0.000051   0.000046  -0.001357   0.001032   0.000097   0.010025
     7  H    0.000000   0.000000   0.000000   0.000000   0.000000   0.000005
     8  O    0.000001   0.000007  -0.000001  -0.000001   0.000000  -0.000007
     9  O    0.000000   0.000000   0.000000   0.000000   0.000000   0.000000
    10  H    0.000000   0.000000   0.000000   0.000000   0.000000   0.000000
    11  H    0.000000   0.000000   0.000000   0.000000   0.000000   0.000000
    12  O    0.000038  -0.000026  -0.007439   0.008733  -0.000730   0.000163
    13  H    0.000000   0.000001  -0.002819   0.000340  -0.000004  -0.000034
    14  H   -0.000001   0.000000   0.007798   0.003045  -0.000239   0.000613
    15  O   -0.000006  -0.000003  -0.065621   0.019367   0.002525  -0.088731
    16  H    0.000000   0.000000   0.002956   0.003155  -0.000032   0.054653
    17  H   -0.000001  -0.000001  -0.000572  -0.001531  -0.000158   0.001637
    18  O    0.000007   0.000194  -0.000003  -0.000001   0.000000   0.000000
    19  H   -0.000001  -0.000067   0.000000   0.000000   0.000000   0.000000
    20  H    0.000000  -0.000018   0.000000   0.000000   0.000000   0.000000
    21  O    0.000052   0.001127   0.000516   0.000013  -0.000004   0.000001
    22  H    0.000000  -0.000017  -0.000008   0.000000   0.000000   0.000000
    23  H   -0.000001  -0.000176   0.000244  -0.000048  -0.000001   0.000004
    24  O   -0.000165  -0.000039  -0.002107   0.001174   0.000067   0.002059
    25  H    0.000001   0.000000   0.000002   0.000005   0.000000   0.000146
    26  H    0.000022   0.000000   0.000019  -0.000016   0.000000   0.000007
    27  O    0.000000   0.000000   0.000000   0.000000   0.000000   0.000000
    28  H    0.000000   0.000000   0.000000   0.000000   0.000000   0.000000
    29  H    0.000000   0.000000   0.000000   0.000000   0.000000   0.000000
    30  O    0.000082   0.035954   0.000022  -0.000001  -0.000001   0.000000
    31  H    0.000044   0.000696  -0.000010   0.000000   0.000000   0.000000
    32  H    0.000028  -0.005429   0.000001   0.000000   0.000000   0.000000
    33  O    0.000000   0.000000   0.000000   0.000000   0.000000   0.000000
    34  H    0.000000   0.000000   0.000000   0.000000   0.000000   0.000000
    35  H    0.000000   0.000000   0.000000   0.000000   0.000000   0.000000
    36  O    0.230851   0.157795   0.000009   0.000002   0.000001   0.000000
    37  H    0.237483  -0.009561  -0.000001   0.000000   0.000000   0.000000
    38  H   -0.009561   0.200601  -0.000001   0.000000   0.000000   0.000000
    39  O   -0.000001  -0.000001   8.989007   0.109198   0.213413  -0.001134
    40  H    0.000000   0.000000   0.109198   0.247002  -0.004555   0.002109
    41  H    0.000000   0.000000   0.213413  -0.004555   0.175264  -0.000045
    42  O    0.000000   0.000000  -0.001134   0.002109  -0.000045   8.748184
    43  H    0.000000   0.000000  -0.000046  -0.000006   0.000000   0.217883
    44  H    0.000000   0.000000   0.000006  -0.000001   0.000000   0.212561
    45  O    0.000000   0.000000   0.000000   0.000000   0.000000   0.000001
    46  H    0.000000   0.000000   0.000000   0.000000   0.000000   0.000001
    47  H    0.000000   0.000000   0.000000   0.000000   0.000000   0.000000
    48  O    0.000000   0.000000   0.000014   0.000001   0.000000  -0.000782
    49  H    0.000000   0.000000   0.000000   0.000000   0.000000   0.000038
    50  H    0.000000   0.000000  -0.000001   0.000000   0.000000  -0.000003
              43         44         45         46         47         48
     1  C    0.000217  -0.001317  -0.000595   0.000940   0.000116   0.001386
     2  H    0.000000   0.000000   0.000000   0.000000   0.000000   0.000000
     3  H    0.000000   0.000001   0.000001   0.000000   0.000000  -0.000009
     4  C   -0.001602   0.003968  -0.037277   0.003635   0.000292  -0.001497
     5  H   -0.000005  -0.000005  -0.000017  -0.000009  -0.000001  -0.000011
     6  C    0.000273  -0.001664   0.019471   0.002082  -0.001467   0.000341
     7  H    0.000000   0.000000   0.004439   0.009244   0.000220   0.000000
     8  O    0.000000   0.000000   0.003383  -0.000770  -0.000513   0.000000
     9  O    0.000000   0.000000  -0.008480  -0.000058   0.002321   0.000000
    10  H    0.000000   0.000000  -0.000065  -0.000024  -0.000002   0.000000
    11  H    0.000000   0.000000  -0.000027   0.000006   0.000027   0.000000
    12  O   -0.000021  -0.000003   0.000001   0.000000   0.000000   0.000001
    13  H    0.000000   0.000000   0.000000   0.000000   0.000000   0.000000
    14  H    0.000000  -0.000008   0.000000   0.000000   0.000000   0.000000
    15  O    0.001150   0.000680   0.000012   0.000001   0.000000  -0.000104
    16  H   -0.002736  -0.001662   0.000000   0.000000   0.000000   0.000001
    17  H   -0.000054   0.000037   0.000000   0.000000   0.000000   0.000001
    18  O    0.000000   0.000000  -0.000001   0.000000   0.000000   0.000000
    19  H    0.000000   0.000000   0.000000   0.000000   0.000000   0.000000
    20  H    0.000000   0.000000   0.000000   0.000000   0.000000   0.000000
    21  O    0.000000   0.000000   0.000000   0.000000   0.000000   0.000000
    22  H    0.000000   0.000000   0.000000   0.000000   0.000000   0.000000
    23  H    0.000000   0.000000   0.000000   0.000000   0.000000   0.000000
    24  O    0.000428  -0.000143  -0.000049   0.000008   0.000001   0.000000
    25  H   -0.000077   0.000009   0.000002  -0.000001   0.000000   0.000000
    26  H    0.000001   0.000000   0.000001   0.000000   0.000000   0.000000
    27  O    0.000000   0.000000  -0.182156   0.009419   0.097915   0.000000
    28  H    0.000000   0.000000   0.003716   0.000104  -0.000383   0.000000
    29  H    0.000000   0.000000   0.003708  -0.000371  -0.003460   0.000000
    30  O    0.000000   0.000000   0.000000   0.000000   0.000000   0.000000
    31  H    0.000000   0.000000   0.000000   0.000000   0.000000   0.000000
    32  H    0.000000   0.000000   0.000000   0.000000   0.000000   0.000000
    33  O    0.000000   0.000000  -0.000058   0.000001  -0.000007   0.000000
    34  H    0.000000   0.000000   0.000016   0.000000  -0.000018   0.000000
    35  H    0.000000   0.000000   0.000001   0.000000   0.000000   0.000000
    36  O    0.000000   0.000000   0.000000   0.000000   0.000000   0.000000
    37  H    0.000000   0.000000   0.000000   0.000000   0.000000   0.000000
    38  H    0.000000   0.000000   0.000000   0.000000   0.000000   0.000000
    39  O   -0.000046   0.000006   0.000000   0.000000   0.000000   0.000014
    40  H   -0.000006  -0.000001   0.000000   0.000000   0.000000   0.000001
    41  H    0.000000   0.000000   0.000000   0.000000   0.000000   0.000000
    42  O    0.217883   0.212561   0.000001   0.000001   0.000000  -0.000782
    43  H    0.176345  -0.010855   0.000000   0.000000   0.000000   0.000000
    44  H   -0.010855   0.239717   0.000000   0.000000   0.000000   0.000559
    45  O    0.000000   0.000000   8.986642   0.183563   0.142899   0.000000
    46  H    0.000000   0.000000   0.183563   0.345519  -0.004755   0.000000
    47  H    0.000000   0.000000   0.142899  -0.004755   0.170034   0.000000
    48  O    0.000000   0.000559   0.000000   0.000000   0.000000   8.713496
    49  H    0.000000  -0.000009   0.000000   0.000000   0.000000   0.232090
    50  H    0.000000  -0.000002   0.000000   0.000000   0.000000   0.200816
              49         50
     1  C   -0.000130   0.000234
     2  H    0.000000   0.000000
     3  H    0.000000  -0.000001
     4  C    0.000157  -0.000283
     5  H   -0.000001   0.000000
     6  C    0.000036  -0.000001
     7  H    0.000000   0.000000
     8  O    0.000000   0.000000
     9  O    0.000000   0.000000
    10  H    0.000000   0.000000
    11  H    0.000000   0.000000
    12  O    0.000000   0.000000
    13  H    0.000000   0.000000
    14  H    0.000000   0.000000
    15  O    0.000001   0.000004
    16  H    0.000000  -0.000001
    17  H    0.000000   0.000000
    18  O    0.000000   0.000000
    19  H    0.000000   0.000000
    20  H    0.000000   0.000000
    21  O    0.000000   0.000000
    22  H    0.000000   0.000000
    23  H    0.000000   0.000000
    24  O    0.000000   0.000000
    25  H    0.000000   0.000000
    26  H    0.000000   0.000000
    27  O    0.000000   0.000000
    28  H    0.000000   0.000000
    29  H    0.000000   0.000000
    30  O    0.000000   0.000000
    31  H    0.000000   0.000000
    32  H    0.000000   0.000000
    33  O    0.000000   0.000000
    34  H    0.000000   0.000000
    35  H    0.000000   0.000000
    36  O    0.000000   0.000000
    37  H    0.000000   0.000000
    38  H    0.000000   0.000000
    39  O    0.000000  -0.000001
    40  H    0.000000   0.000000
    41  H    0.000000   0.000000
    42  O    0.000038  -0.000003
    43  H    0.000000   0.000000
    44  H   -0.000009  -0.000002
    45  O    0.000000   0.000000
    46  H    0.000000   0.000000
    47  H    0.000000   0.000000
    48  O    0.232090   0.200816
    49  H    0.277166  -0.008178
    50  H   -0.008178   0.160165
 Mulliken charges:
               1
     1  C   -0.482764
     2  H    0.252768
     3  H    0.255964
     4  C    0.256191
     5  H    0.212191
     6  C   -0.080145
     7  H    0.163990
     8  O   -0.489091
     9  O   -1.438972
    10  H    0.646441
    11  H    0.737685
    12  O   -1.220181
    13  H    0.628143
    14  H    0.626481
    15  O   -1.234974
    16  H    0.592481
    17  H    0.628634
    18  O   -1.119846
    19  H    0.625629
    20  H    0.492082
    21  O   -1.369730
    22  H    0.687548
    23  H    0.669465
    24  O   -1.153478
    25  H    0.606822
    26  H    0.567260
    27  O   -1.267594
    28  H    0.671723
    29  H    0.624687
    30  O   -1.243632
    31  H    0.594579
    32  H    0.611470
    33  O   -1.247547
    34  H    0.634563
    35  H    0.618243
    36  O   -1.157101
    37  H    0.541175
    38  H    0.618933
    39  O   -1.243339
    40  H    0.611017
    41  H    0.614529
    42  O   -1.148426
    43  H    0.619106
    44  H    0.558130
    45  O   -1.119129
    46  H    0.451462
    47  H    0.596781
    48  O   -1.146302
    49  H    0.498829
    50  H    0.647250
 Sum of Mulliken charges =   0.00000
 Mulliken charges with hydrogens summed into heavy atoms:
               1
     1  C    0.025967
     4  C    0.468382
     6  C    0.083845
     8  O   -0.489091
     9  O   -0.054846
    12  O    0.034443
    15  O   -0.013859
    18  O   -0.002135
    21  O   -0.012717
    24  O    0.020603
    27  O    0.028816
    30  O   -0.037583
    33  O    0.005259
    36  O    0.003007
    39  O   -0.017792
    42  O    0.028810
    45  O   -0.070887
    48  O   -0.000224
 Electronic spatial extent (au):  <R**2>=          11624.9855
 Charge=              0.0000 electrons
 Dipole moment (field-independent basis, Debye):
    X=             -8.3519    Y=             -5.6972    Z=              3.2667  Tot=             10.6247
 Quadrupole moment (field-independent basis, Debye-Ang):
   XX=           -126.3984   YY=           -158.8102   ZZ=           -126.0934
   XY=            -36.8924   XZ=             -6.4830   YZ=             10.4792
 Traceless Quadrupole moment (field-independent basis, Debye-Ang):
   XX=             10.7022   YY=            -21.7095   ZZ=             11.0073
   XY=            -36.8924   XZ=             -6.4830   YZ=             10.4792
 Octapole moment (field-independent basis, Debye-Ang**2):
  XXX=            380.3988  YYY=            -59.5938  ZZZ=             18.5295  XYY=           -131.1092
  XXY=            163.1425  XXZ=             80.2598  XZZ=           -264.3215  YZZ=            -55.5841
  YYZ=            -46.1958  XYZ=            138.5822
 Hexadecapole moment (field-independent basis, Debye-Ang**3):
 XXXX=          -5903.4859 YYYY=          -5783.4970 ZZZZ=          -2154.3393 XXXY=          -1286.3347
 XXXZ=            -31.6740 YYYX=           -842.8599 YYYZ=           -151.9596 ZZZX=            -31.1997
 ZZZY=            298.0164 XXYY=          -2200.0623 XXZZ=          -1801.2130 YYZZ=          -1262.3468
 XXYZ=            197.5086 YYXZ=           -430.3896 ZZXY=             93.8608
 N-N= 1.126178032877D+03 E-N=-6.219709317641D+03  KE= 1.249493691206D+03
 Leave Link  601 at Fri Sep 14 19:10:30 2018, MaxMem=    33554432 cpu:        20.5
 (Enter /usr/local/pacerepov1/gaussian/G09D01LINDA/g09/l9999.exe)

 Test job not archived.
 1\1\GINC-IW-H31-21\SP\RLC-wPBE TD-FC\6-31+G(d)\C3H32O15\ROOT\14-Sep-20
 18\0\\#p td=(nstates=15)/6-31+g(d) lc-wpbe charge\\Acroleina in Water\
 \0,1\C,0,0.485154,0.480443,-1.430142\H,0,1.461403,0.187773,-1.055732\H
 ,0,0.429244,0.878853,-2.437062\C,0,-0.605127,0.346563,-0.658432\H,0,-1
 .591686,0.632893,-1.012412\C,0,-0.508516,-0.199107,0.712798\H,0,-1.458
 487,-0.272107,1.272438\O,0,0.544883,-0.561317,1.236519\O,0,0.762565,-2
 .140502,2.715185\H,0,0.703945,-1.267672,2.230675\H,0,1.384955,-2.04900
 2,3.492555\O,0,1.145935,3.113228,-1.942724\H,0,1.407465,3.574098,-2.79
 0785\H,0,0.173605,3.266498,-1.766294\O,0,-1.192645,3.457788,-1.511535\
 H,0,-1.979085,2.975758,-1.897825\H,0,-1.421045,3.787818,-0.595614\O,0,
 3.952585,0.605818,0.018425\H,0,3.726955,1.450568,-0.466925\H,0,3.17103
 5,0.321658,0.573815\O,0,3.336205,2.676258,-1.088704\H,0,3.963235,3.267
 788,-1.595574\H,0,2.396365,2.864938,-1.373605\O,0,-1.310955,4.064467,0
 .836666\H,0,-2.255615,3.746598,0.918325\H,0,-0.908755,4.151848,1.74806
 5\O,0,-1.234475,-2.408112,3.753785\H,0,-1.259545,-3.252272,4.289305\H,
 0,-0.334975,-2.310172,3.327945\O,0,3.893025,3.867948,0.822695\H,0,3.59
 2885,3.148708,0.196075\H,0,3.768165,4.760678,0.389695\O,0,2.060115,-4.
 122882,1.940885\H,0,1.481665,-3.324662,2.109076\H,0,1.686345,-4.913462
 ,2.425925\O,0,2.312355,4.475028,2.669745\H,0,1.987405,5.378608,2.39058
 5\H,0,2.869145,4.080558,1.938676\O,0,-0.778655,5.286178,-3.038774\H,0,
 -0.939845,4.550158,-2.381234\H,0,-0.683995,6.154017,-2.550995\O,0,-3.6
 21925,3.099538,-2.365055\H,0,-4.113365,3.499538,-1.591415\H,0,-4.02683
 5,2.214678,-2.595585\O,0,-3.036045,-1.102962,3.321265\H,0,-2.726905,-0
 .308602,2.798346\H,0,-2.317985,-1.798982,3.325815\O,0,-3.361785,0.3360
 88,-5.639625\H,0,-3.353305,-0.623882,-5.359505\H,0,-2.438975,0.613318,
 -5.907285\\Version=EM64L-G09RevD.01\State=1-A\HF=-1759.3697443\RMSD=3.
 289e-09\PG=C01 [X(C3H32O15)]\\@


 THE SOLUTION TO A PROBLEM CHANGES THE PROBLEM.

                                 -- JOHN PEERS
           PAUL DICKSON'S "THE OFFICIAL RULES"
 Job cpu time:       0 days  7 hours  4 minutes 47.1 seconds.
 File lengths (MBytes):  RWF=    792 Int=      0 D2E=      0 Chk=     96 Scr=      2
 Normal termination of Gaussian 09 at Fri Sep 14 19:10:35 2018.
