 Entering Gaussian System, Link 0=g09
 Input=Acroleina_water_15_74c.gjf
 Output=Acroleina_water_15_74c.log
 Initial command:
 /usr/local/pacerepov1/gaussian/G09D01LINDA/g09/l1.exe /nv/hp18/holiveira7/scratch/22411995/Gau-15691.inp -scrdir=/nv/hp18/holiveira7/scratch/22411995/
 Entering Link 1 = /usr/local/pacerepov1/gaussian/G09D01LINDA/g09/l1.exe PID=     15692.
  
 Copyright (c) 1988,1990,1992,1993,1995,1998,2003,2009,2013,
            Gaussian, Inc.  All Rights Reserved.
  
 This is part of the Gaussian(R) 09 program.  It is based on
 the Gaussian(R) 03 system (copyright 2003, Gaussian, Inc.),
 the Gaussian(R) 98 system (copyright 1998, Gaussian, Inc.),
 the Gaussian(R) 94 system (copyright 1995, Gaussian, Inc.),
 the Gaussian 92(TM) system (copyright 1992, Gaussian, Inc.),
 the Gaussian 90(TM) system (copyright 1990, Gaussian, Inc.),
 the Gaussian 88(TM) system (copyright 1988, Gaussian, Inc.),
 the Gaussian 86(TM) system (copyright 1986, Carnegie Mellon
 University), and the Gaussian 82(TM) system (copyright 1983,
 Carnegie Mellon University). Gaussian is a federally registered
 trademark of Gaussian, Inc.
  
 This software contains proprietary and confidential information,
 including trade secrets, belonging to Gaussian, Inc.
  
 This software is provided under written license and may be
 used, copied, transmitted, or stored only in accord with that
 written license.
  
 The following legend is applicable only to US Government
 contracts under FAR:
  
                    RESTRICTED RIGHTS LEGEND
  
 Use, reproduction and disclosure by the US Government is
 subject to restrictions as set forth in subparagraphs (a)
 and (c) of the Commercial Computer Software - Restricted
 Rights clause in FAR 52.227-19.
  
 Gaussian, Inc.
 340 Quinnipiac St., Bldg. 40, Wallingford CT 06492
  
  
 ---------------------------------------------------------------
 Warning -- This program may not be used in any manner that
 competes with the business of Gaussian, Inc. or will provide
 assistance to any competitor of Gaussian, Inc.  The licensee
 of this program is prohibited from giving any competitor of
 Gaussian, Inc. access to this program.  By using this program,
 the user acknowledges that Gaussian, Inc. is engaged in the
 business of creating and licensing software in the field of
 computational chemistry and represents and warrants to the
 licensee that it is not a competitor of Gaussian, Inc. and that
 it will not use this program in any manner prohibited above.
 ---------------------------------------------------------------
  

 Cite this work as:
 Gaussian 09, Revision D.01,
 M. J. Frisch, G. W. Trucks, H. B. Schlegel, G. E. Scuseria, 
 M. A. Robb, J. R. Cheeseman, G. Scalmani, V. Barone, B. Mennucci, 
 G. A. Petersson, H. Nakatsuji, M. Caricato, X. Li, H. P. Hratchian, 
 A. F. Izmaylov, J. Bloino, G. Zheng, J. L. Sonnenberg, M. Hada, 
 M. Ehara, K. Toyota, R. Fukuda, J. Hasegawa, M. Ishida, T. Nakajima, 
 Y. Honda, O. Kitao, H. Nakai, T. Vreven, J. A. Montgomery, Jr., 
 J. E. Peralta, F. Ogliaro, M. Bearpark, J. J. Heyd, E. Brothers, 
 K. N. Kudin, V. N. Staroverov, T. Keith, R. Kobayashi, J. Normand, 
 K. Raghavachari, A. Rendell, J. C. Burant, S. S. Iyengar, J. Tomasi, 
 M. Cossi, N. Rega, J. M. Millam, M. Klene, J. E. Knox, J. B. Cross, 
 V. Bakken, C. Adamo, J. Jaramillo, R. Gomperts, R. E. Stratmann, 
 O. Yazyev, A. J. Austin, R. Cammi, C. Pomelli, J. W. Ochterski, 
 R. L. Martin, K. Morokuma, V. G. Zakrzewski, G. A. Voth, 
 P. Salvador, J. J. Dannenberg, S. Dapprich, A. D. Daniels, 
 O. Farkas, J. B. Foresman, J. V. Ortiz, J. Cioslowski, 
 and D. J. Fox, Gaussian, Inc., Wallingford CT, 2013.
 
 ******************************************
 Gaussian 09:  EM64L-G09RevD.01 24-Apr-2013
                14-Sep-2018 
 ******************************************
 %chk=Acrolina_Din_74.chk
 %nprocshared=10
 Will use up to   10 processors via shared memory.
 -------------------------------------------
 #p td=(nstates=15)/6-31+g(d) lc-wpbe charge
 -------------------------------------------
 1/18=10,28=-2,38=1,125=101/1;
 2/12=2,17=6,18=5,40=1/2;
 3/5=1,6=6,7=11,11=9,16=1,25=1,30=1,74=-41/1,2,8,3;
 4//1;
 5/5=2,38=5/2;
 8/6=1,10=2,108=15/1;
 9/41=15,42=1,70=2/14;
 6/7=2,8=2,9=2,10=2/1;
 99/5=1,9=1/99;
 Leave Link    1 at Fri Sep 14 17:28:35 2018, MaxMem=           0 cpu:         8.8
 (Enter /usr/local/pacerepov1/gaussian/G09D01LINDA/g09/l101.exe)
 ------------------
 Acroleina in Water
 ------------------
 Symbolic Z-matrix:
 Charge =  0 Multiplicity = 1
 C                     0.48515   0.48044  -1.43014 
 H                     1.4614    0.18777  -1.05573 
 H                     0.42924   0.87885  -2.43706 
 C                    -0.60513   0.34656  -0.65843 
 H                    -1.59169   0.63289  -1.01241 
 C                    -0.50852  -0.19911   0.7128 
 H                    -1.45849  -0.27211   1.27244 
 O                     0.54488  -0.56132   1.23652 
 O                    -1.19789  -0.60251   3.45412 
 H                    -0.99159  -0.1818    2.57069 
 H                    -0.34555  -0.77787   3.94688 
 O                     3.08448   1.86358   1.26185 
 H                     2.89993   2.62316   0.63812 
 H                     2.91403   2.15609   2.20281 
 O                     0.85394  -3.49107   2.20313 
 H                     0.21458  -3.1049    1.5382 
 H                     0.55314  -4.40944   2.46022 
 O                     2.71168   3.57668  -0.34959 
 H                     3.3472    4.1915   -0.81662 
 H                     1.89547   3.45003  -0.91335 
 O                    -2.3959    3.18014   1.03857 
 H                    -3.3899    3.28976   1.04467 
 H                    -2.11043   2.68274   1.8578 
 O                     0.46251   3.80536  -1.50552 
 H                     0.70387   4.3732   -2.29249 
 H                    -0.51228   3.90777  -1.30709 
 O                    -4.39278  -0.32364   2.60777 
 H                    -3.67135   0.02336   2.00845 
 H                    -3.98294  -0.85221   3.35121 
 O                    -1.97898   4.21017  -0.9637 
 H                    -2.84936   3.98293  -1.40056 
 H                    -1.97296   3.85593  -0.02856 
 O                     2.9375    5.19425   1.47036 
 H                     2.70885   4.39871   0.90923 
 H                     2.94377   6.01469   0.89861 
 O                     5.26722   1.38064   0.63723 
 H                     5.45213   1.64737  -0.30865 
 H                     4.29021   1.47932   0.8264 
 O                    -2.97219  -1.58625   4.57004 
 H                    -2.69108  -2.54524   4.53348 
 H                    -2.26263  -1.015     4.15745 
 O                     2.80421  -4.64174   1.55444 
 H                     1.95546  -4.16371   1.78066 
 H                     3.12884  -5.1423    2.35698 
 O                     0.56942  -0.92223   4.87772 
 H                     1.07235  -0.46509   5.61128 
 H                     1.18454  -1.53815   4.3855 
 O                     5.82244   1.89921  -1.6731 
 H                     5.55089   2.79767  -2.01823 
 H                     5.70275   1.21547  -2.39303 
 
 NAtoms=     50 NQM=       50 NQMF=       0 NMMI=      0 NMMIF=      0
                NMic=       0 NMicF=      0.
                    Isotopes and Nuclear Properties:
 (Nuclear quadrupole moments (NQMom) in fm**2, nuclear magnetic moments (NMagM)
  in nuclear magnetons)

  Atom         1           2           3           4           5           6           7           8           9          10
 IAtWgt=          12           1           1          12           1          12           1          16          16           1
 AtmWgt=  12.0000000   1.0078250   1.0078250  12.0000000   1.0078250  12.0000000   1.0078250  15.9949146  15.9949146   1.0078250
 NucSpn=           0           1           1           0           1           0           1           0           0           1
 AtZEff=   0.0000000   0.0000000   0.0000000   0.0000000   0.0000000   0.0000000   0.0000000   0.0000000   0.0000000   0.0000000
 NQMom=    0.0000000   0.0000000   0.0000000   0.0000000   0.0000000   0.0000000   0.0000000   0.0000000   0.0000000   0.0000000
 NMagM=    0.0000000   2.7928460   2.7928460   0.0000000   2.7928460   0.0000000   2.7928460   0.0000000   0.0000000   2.7928460
 AtZNuc=   6.0000000   1.0000000   1.0000000   6.0000000   1.0000000   6.0000000   1.0000000   8.0000000   8.0000000   1.0000000

  Atom        11          12          13          14          15          16          17          18          19          20
 IAtWgt=           1          16           1           1          16           1           1          16           1           1
 AtmWgt=   1.0078250  15.9949146   1.0078250   1.0078250  15.9949146   1.0078250   1.0078250  15.9949146   1.0078250   1.0078250
 NucSpn=           1           0           1           1           0           1           1           0           1           1
 AtZEff=   0.0000000   0.0000000   0.0000000   0.0000000   0.0000000   0.0000000   0.0000000   0.0000000   0.0000000   0.0000000
 NQMom=    0.0000000   0.0000000   0.0000000   0.0000000   0.0000000   0.0000000   0.0000000   0.0000000   0.0000000   0.0000000
 NMagM=    2.7928460   0.0000000   2.7928460   2.7928460   0.0000000   2.7928460   2.7928460   0.0000000   2.7928460   2.7928460
 AtZNuc=   1.0000000   8.0000000   1.0000000   1.0000000   8.0000000   1.0000000   1.0000000   8.0000000   1.0000000   1.0000000

  Atom        21          22          23          24          25          26          27          28          29          30
 IAtWgt=          16           1           1          16           1           1          16           1           1          16
 AtmWgt=  15.9949146   1.0078250   1.0078250  15.9949146   1.0078250   1.0078250  15.9949146   1.0078250   1.0078250  15.9949146
 NucSpn=           0           1           1           0           1           1           0           1           1           0
 AtZEff=   0.0000000   0.0000000   0.0000000   0.0000000   0.0000000   0.0000000   0.0000000   0.0000000   0.0000000   0.0000000
 NQMom=    0.0000000   0.0000000   0.0000000   0.0000000   0.0000000   0.0000000   0.0000000   0.0000000   0.0000000   0.0000000
 NMagM=    0.0000000   2.7928460   2.7928460   0.0000000   2.7928460   2.7928460   0.0000000   2.7928460   2.7928460   0.0000000
 AtZNuc=   8.0000000   1.0000000   1.0000000   8.0000000   1.0000000   1.0000000   8.0000000   1.0000000   1.0000000   8.0000000

  Atom        31          32          33          34          35          36          37          38          39          40
 IAtWgt=           1           1          16           1           1          16           1           1          16           1
 AtmWgt=   1.0078250   1.0078250  15.9949146   1.0078250   1.0078250  15.9949146   1.0078250   1.0078250  15.9949146   1.0078250
 NucSpn=           1           1           0           1           1           0           1           1           0           1
 AtZEff=   0.0000000   0.0000000   0.0000000   0.0000000   0.0000000   0.0000000   0.0000000   0.0000000   0.0000000   0.0000000
 NQMom=    0.0000000   0.0000000   0.0000000   0.0000000   0.0000000   0.0000000   0.0000000   0.0000000   0.0000000   0.0000000
 NMagM=    2.7928460   2.7928460   0.0000000   2.7928460   2.7928460   0.0000000   2.7928460   2.7928460   0.0000000   2.7928460
 AtZNuc=   1.0000000   1.0000000   8.0000000   1.0000000   1.0000000   8.0000000   1.0000000   1.0000000   8.0000000   1.0000000

  Atom        41          42          43          44          45          46          47          48          49          50
 IAtWgt=           1          16           1           1          16           1           1          16           1           1
 AtmWgt=   1.0078250  15.9949146   1.0078250   1.0078250  15.9949146   1.0078250   1.0078250  15.9949146   1.0078250   1.0078250
 NucSpn=           1           0           1           1           0           1           1           0           1           1
 AtZEff=   0.0000000   0.0000000   0.0000000   0.0000000   0.0000000   0.0000000   0.0000000   0.0000000   0.0000000   0.0000000
 NQMom=    0.0000000   0.0000000   0.0000000   0.0000000   0.0000000   0.0000000   0.0000000   0.0000000   0.0000000   0.0000000
 NMagM=    2.7928460   0.0000000   2.7928460   2.7928460   0.0000000   2.7928460   2.7928460   0.0000000   2.7928460   2.7928460
 AtZNuc=   1.0000000   8.0000000   1.0000000   1.0000000   8.0000000   1.0000000   1.0000000   8.0000000   1.0000000   1.0000000
 Background charge distribution read from input stream:
 Point Charges:
 XYZ=    1.5490    5.8571    3.0430 Q=   -0.8200 A=    0.0000 R=    0.0000 C=    0.0000
 XYZ=    1.1352    6.6892    2.6737 Q=    0.4100 A=    0.0000 R=    0.0000 C=    0.0000
 XYZ=    2.1776    5.4699    2.3685 Q=    0.4100 A=    0.0000 R=    0.0000 C=    0.0000
 XYZ=    4.2433   -1.1842   -4.5981 Q=   -0.8200 A=    0.0000 R=    0.0000 C=    0.0000
 XYZ=    3.6411   -0.8465   -5.3215 Q=    0.4100 A=    0.0000 R=    0.0000 C=    0.0000
 XYZ=    4.6969   -0.4114   -4.1542 Q=    0.4100 A=    0.0000 R=    0.0000 C=    0.0000
 XYZ=    2.3430   -2.3764    3.8589 Q=   -0.8200 A=    0.0000 R=    0.0000 C=    0.0000
 XYZ=    3.0758   -2.0394    3.2676 Q=    0.4100 A=    0.0000 R=    0.0000 C=    0.0000
 XYZ=    1.6617   -2.8553    3.3053 Q=    0.4100 A=    0.0000 R=    0.0000 C=    0.0000
 XYZ=    2.4523   -6.3148   -0.3331 Q=   -0.8200 A=    0.0000 R=    0.0000 C=    0.0000
 XYZ=    2.4827   -5.5353    0.2925 Q=    0.4100 A=    0.0000 R=    0.0000 C=    0.0000
 XYZ=    3.3726   -6.5027   -0.6764 Q=    0.4100 A=    0.0000 R=    0.0000 C=    0.0000
 XYZ=   -1.4514    5.9353   -2.5213 Q=   -0.8200 A=    0.0000 R=    0.0000 C=    0.0000
 XYZ=   -1.7468    5.1653   -1.9556 Q=    0.4100 A=    0.0000 R=    0.0000 C=    0.0000
 XYZ=   -1.2772    6.7293   -1.9388 Q=    0.4100 A=    0.0000 R=    0.0000 C=    0.0000
 XYZ=    5.8707    0.0446   -3.2652 Q=   -0.8200 A=    0.0000 R=    0.0000 C=    0.0000
 XYZ=    6.3417    0.2539   -4.1222 Q=    0.4100 A=    0.0000 R=    0.0000 C=    0.0000
 XYZ=    6.1777   -0.8442   -2.9247 Q=    0.4100 A=    0.0000 R=    0.0000 C=    0.0000
 XYZ=   -4.7573    3.3608    1.2467 Q=   -0.8200 A=    0.0000 R=    0.0000 C=    0.0000
 XYZ=   -4.9432    4.1165    0.6187 Q=    0.4100 A=    0.0000 R=    0.0000 C=    0.0000
 XYZ=   -5.1517    3.5669    2.1422 Q=    0.4100 A=    0.0000 R=    0.0000 C=    0.0000
 XYZ=    2.9894   -0.3422   -6.4161 Q=   -0.8200 A=    0.0000 R=    0.0000 C=    0.0000
 XYZ=    3.0428    0.4918   -6.9653 Q=    0.4100 A=    0.0000 R=    0.0000 C=    0.0000
 XYZ=    2.0303   -0.5900   -6.2789 Q=    0.4100 A=    0.0000 R=    0.0000 C=    0.0000
 XYZ=   -5.8481   -2.1103    1.8172 Q=   -0.8200 A=    0.0000 R=    0.0000 C=    0.0000
 XYZ=   -5.3061   -1.3678    2.2108 Q=    0.4100 A=    0.0000 R=    0.0000 C=    0.0000
 XYZ=   -5.4380   -2.9887    2.0626 Q=    0.4100 A=    0.0000 R=    0.0000 C=    0.0000
 XYZ=    4.9500   -4.5928    0.0762 Q=   -0.8200 A=    0.0000 R=    0.0000 C=    0.0000
 XYZ=    4.1443   -4.3906    0.6331 Q=    0.4100 A=    0.0000 R=    0.0000 C=    0.0000
 XYZ=    4.7012   -5.2351   -0.6488 Q=    0.4100 A=    0.0000 R=    0.0000 C=    0.0000
 XYZ=    4.7941    4.5953    3.0148 Q=   -0.8200 A=    0.0000 R=    0.0000 C=    0.0000
 XYZ=    4.4228    4.6883    3.9386 Q=    0.4100 A=    0.0000 R=    0.0000 C=    0.0000
 XYZ=    4.0789    4.7988    2.3461 Q=    0.4100 A=    0.0000 R=    0.0000 C=    0.0000
 XYZ=   -6.1293    0.7614    3.9912 Q=   -0.8200 A=    0.0000 R=    0.0000 C=    0.0000
 XYZ=   -5.3585    0.5440    3.3923 Q=    0.4100 A=    0.0000 R=    0.0000 C=    0.0000
 XYZ=   -6.2884   -0.0002    4.6194 Q=    0.4100 A=    0.0000 R=    0.0000 C=    0.0000
 XYZ=    5.5122   -3.0321   -4.2109 Q=   -0.8200 A=    0.0000 R=    0.0000 C=    0.0000
 XYZ=    6.2539   -2.7617   -3.5971 Q=    0.4100 A=    0.0000 R=    0.0000 C=    0.0000
 XYZ=    4.9790   -2.2251   -4.4651 Q=    0.4100 A=    0.0000 R=    0.0000 C=    0.0000
 XYZ=   -4.0850    3.4577   -1.8214 Q=   -0.8200 A=    0.0000 R=    0.0000 C=    0.0000
 XYZ=   -4.5845    4.0381   -1.1782 Q=    0.4100 A=    0.0000 R=    0.0000 C=    0.0000
 XYZ=   -4.5172    2.5568   -1.8622 Q=    0.4100 A=    0.0000 R=    0.0000 C=    0.0000
 XYZ=   -1.1094    7.4030    0.9813 Q=   -0.8200 A=    0.0000 R=    0.0000 C=    0.0000
 XYZ=   -1.7669    7.9708    1.4767 Q=    0.4100 A=    0.0000 R=    0.0000 C=    0.0000
 XYZ=   -1.5273    6.5206    0.7652 Q=    0.4100 A=    0.0000 R=    0.0000 C=    0.0000
 XYZ=    4.5916   -1.8554    2.9511 Q=   -0.8200 A=    0.0000 R=    0.0000 C=    0.0000
 XYZ=    5.0449   -1.2218    3.5782 Q=    0.4100 A=    0.0000 R=    0.0000 C=    0.0000
 XYZ=    4.9577   -1.7304    2.0288 Q=    0.4100 A=    0.0000 R=    0.0000 C=    0.0000
 XYZ=    7.0442   -0.1489    1.1931 Q=   -0.8200 A=    0.0000 R=    0.0000 C=    0.0000
 XYZ=    6.1683    0.3323    1.1575 Q=    0.4100 A=    0.0000 R=    0.0000 C=    0.0000
 XYZ=    6.8812   -1.1325    1.2711 Q=    0.4100 A=    0.0000 R=    0.0000 C=    0.0000
 XYZ=    3.9523    5.0886   -1.7412 Q=   -0.8200 A=    0.0000 R=    0.0000 C=    0.0000
 XYZ=    4.3416    5.7849   -1.1381 Q=    0.4100 A=    0.0000 R=    0.0000 C=    0.0000
 XYZ=    4.6870    4.6405   -2.2505 Q=    0.4100 A=    0.0000 R=    0.0000 C=    0.0000
 XYZ=    0.7024    5.2899   -3.3516 Q=   -0.8200 A=    0.0000 R=    0.0000 C=    0.0000
 XYZ=   -0.2479    5.4963   -3.1180 Q=    0.4100 A=    0.0000 R=    0.0000 C=    0.0000
 XYZ=    0.7521    4.9778   -4.3003 Q=    0.4100 A=    0.0000 R=    0.0000 C=    0.0000
 XYZ=    0.3220   -5.5766    3.0560 Q=   -0.8200 A=    0.0000 R=    0.0000 C=    0.0000
 XYZ=   -0.0659   -6.3716    2.5894 Q=    0.4100 A=    0.0000 R=    0.0000 C=    0.0000
 XYZ=    0.8814   -5.8825    3.8264 Q=    0.4100 A=    0.0000 R=    0.0000 C=    0.0000
 XYZ=   -0.6029   -2.5177    6.2883 Q=   -0.8200 A=    0.0000 R=    0.0000 C=    0.0000
 XYZ=    0.0122   -1.8649    5.8461 Q=    0.4100 A=    0.0000 R=    0.0000 C=    0.0000
 XYZ=   -1.3231   -2.7837    5.6475 Q=    0.4100 A=    0.0000 R=    0.0000 C=    0.0000
 XYZ=    3.7268    1.4419    5.5151 Q=   -0.8200 A=    0.0000 R=    0.0000 C=    0.0000
 XYZ=    4.2886    1.6846    6.3059 Q=    0.4100 A=    0.0000 R=    0.0000 C=    0.0000
 XYZ=    3.5141    2.2670    4.9916 Q=    0.4100 A=    0.0000 R=    0.0000 C=    0.0000
 XYZ=   -0.7774   -6.9960    1.6832 Q=   -0.8200 A=    0.0000 R=    0.0000 C=    0.0000
 XYZ=   -0.1330   -7.2587    0.9650 Q=    0.4100 A=    0.0000 R=    0.0000 C=    0.0000
 XYZ=   -1.6277   -6.6743    1.2667 Q=    0.4100 A=    0.0000 R=    0.0000 C=    0.0000
 XYZ=    0.5813   -7.5615   -0.2049 Q=   -0.8200 A=    0.0000 R=    0.0000 C=    0.0000
 XYZ=    1.4092   -7.0025   -0.2503 Q=    0.4100 A=    0.0000 R=    0.0000 C=    0.0000
 XYZ=    0.5247   -8.1401   -1.0185 Q=    0.4100 A=    0.0000 R=    0.0000 C=    0.0000
 XYZ=    4.8859   -5.3263   -3.4761 Q=   -0.8200 A=    0.0000 R=    0.0000 C=    0.0000
 XYZ=    5.0182   -4.4037   -3.8383 Q=    0.4100 A=    0.0000 R=    0.0000 C=    0.0000
 XYZ=    4.2132   -5.8107   -4.0354 Q=    0.4100 A=    0.0000 R=    0.0000 C=    0.0000
 XYZ=   -6.7953    2.4564    0.7558 Q=   -0.8200 A=    0.0000 R=    0.0000 C=    0.0000
 XYZ=   -5.8613    2.7758    0.9164 Q=    0.4100 A=    0.0000 R=    0.0000 C=    0.0000
 XYZ=   -6.8688    2.0952   -0.1739 Q=    0.4100 A=    0.0000 R=    0.0000 C=    0.0000
 XYZ=    2.1761    6.5560   -2.1500 Q=   -0.8200 A=    0.0000 R=    0.0000 C=    0.0000
 XYZ=    3.0331    6.0422   -2.1107 Q=    0.4100 A=    0.0000 R=    0.0000 C=    0.0000
 XYZ=    1.5259    6.0752   -2.7383 Q=    0.4100 A=    0.0000 R=    0.0000 C=    0.0000
 XYZ=    6.3255    2.8189    2.3481 Q=   -0.8200 A=    0.0000 R=    0.0000 C=    0.0000
 XYZ=    5.6699    3.4675    2.7349 Q=    0.4100 A=    0.0000 R=    0.0000 C=    0.0000
 XYZ=    5.9169    2.3642    1.5567 Q=    0.4100 A=    0.0000 R=    0.0000 C=    0.0000
 XYZ=    7.7447    0.9994   -0.8166 Q=   -0.8200 A=    0.0000 R=    0.0000 C=    0.0000
 XYZ=    7.0091    1.5643   -1.1904 Q=    0.4100 A=    0.0000 R=    0.0000 C=    0.0000
 XYZ=    7.4688    0.6398    0.0747 Q=    0.4100 A=    0.0000 R=    0.0000 C=    0.0000
 XYZ=   -2.1596    2.7096   -4.7671 Q=   -0.8200 A=    0.0000 R=    0.0000 C=    0.0000
 XYZ=   -2.8170    3.2653   -4.2579 Q=    0.4100 A=    0.0000 R=    0.0000 C=    0.0000
 XYZ=   -1.6604    3.2900   -5.4105 Q=    0.4100 A=    0.0000 R=    0.0000 C=    0.0000
 XYZ=   -4.7408   -2.4200    5.6879 Q=   -0.8200 A=    0.0000 R=    0.0000 C=    0.0000
 XYZ=   -4.0281   -1.9173    5.1985 Q=    0.4100 A=    0.0000 R=    0.0000 C=    0.0000
 XYZ=   -4.3202   -3.1323    6.2498 Q=    0.4100 A=    0.0000 R=    0.0000 C=    0.0000
 XYZ=    1.6694    5.9915    5.5281 Q=   -0.8200 A=    0.0000 R=    0.0000 C=    0.0000
 XYZ=    1.4772    5.7347    4.5809 Q=    0.4100 A=    0.0000 R=    0.0000 C=    0.0000
 XYZ=    1.4002    5.2453    6.1370 Q=    0.4100 A=    0.0000 R=    0.0000 C=    0.0000
 XYZ=   -6.2970   -3.0421   -0.2656 Q=   -0.8200 A=    0.0000 R=    0.0000 C=    0.0000
 XYZ=   -6.1616   -2.5293    0.5821 Q=    0.4100 A=    0.0000 R=    0.0000 C=    0.0000
 XYZ=   -6.3151   -4.0213   -0.0636 Q=    0.4100 A=    0.0000 R=    0.0000 C=    0.0000
 XYZ=    2.8037    7.2250    0.1583 Q=   -0.8200 A=    0.0000 R=    0.0000 C=    0.0000
 XYZ=    2.0602    7.5635    0.7350 Q=    0.4100 A=    0.0000 R=    0.0000 C=    0.0000
 XYZ=    2.4497    7.0157   -0.7533 Q=    0.4100 A=    0.0000 R=    0.0000 C=    0.0000
 XYZ=    6.7441   -3.4381   -0.6895 Q=   -0.8200 A=    0.0000 R=    0.0000 C=    0.0000
 XYZ=    5.8931   -3.9313   -0.5085 Q=    0.4100 A=    0.0000 R=    0.0000 C=    0.0000
 XYZ=    7.4533   -4.0872   -0.9648 Q=    0.4100 A=    0.0000 R=    0.0000 C=    0.0000
 XYZ=    2.0405    0.0824    6.4931 Q=   -0.8200 A=    0.0000 R=    0.0000 C=    0.0000
 XYZ=    2.6495   -0.5807    6.9283 Q=    0.4100 A=    0.0000 R=    0.0000 C=    0.0000
 XYZ=    2.5698    0.6685    5.8796 Q=    0.4100 A=    0.0000 R=    0.0000 C=    0.0000
 XYZ=    4.7165   -6.5124   -1.2863 Q=   -0.8200 A=    0.0000 R=    0.0000 C=    0.0000
 XYZ=    5.4903   -7.1451   -1.2539 Q=    0.4100 A=    0.0000 R=    0.0000 C=    0.0000
 XYZ=    4.7678   -5.9657   -2.1221 Q=    0.4100 A=    0.0000 R=    0.0000 C=    0.0000
 XYZ=   -4.1146    1.0964   -5.1199 Q=   -0.8200 A=    0.0000 R=    0.0000 C=    0.0000
 XYZ=   -3.8727    0.1553   -4.8834 Q=    0.4100 A=    0.0000 R=    0.0000 C=    0.0000
 XYZ=   -3.3294    1.6936   -4.9559 Q=    0.4100 A=    0.0000 R=    0.0000 C=    0.0000
 XYZ=   -3.0010   -6.9536    0.7833 Q=   -0.8200 A=    0.0000 R=    0.0000 C=    0.0000
 XYZ=   -3.1015   -7.9212    1.0151 Q=    0.4100 A=    0.0000 R=    0.0000 C=    0.0000
 XYZ=   -3.5766   -6.7384   -0.0056 Q=    0.4100 A=    0.0000 R=    0.0000 C=    0.0000
 XYZ=    5.7956    4.1230   -2.9769 Q=   -0.8200 A=    0.0000 R=    0.0000 C=    0.0000
 XYZ=    6.7467    4.3014   -2.7246 Q=    0.4100 A=    0.0000 R=    0.0000 C=    0.0000
 XYZ=    5.7082    4.1297   -3.9730 Q=    0.4100 A=    0.0000 R=    0.0000 C=    0.0000
 XYZ=    1.0841    7.8737    1.5017 Q=   -0.8200 A=    0.0000 R=    0.0000 C=    0.0000
 XYZ=    1.0602    8.5798    2.2094 Q=    0.4100 A=    0.0000 R=    0.0000 C=    0.0000
 XYZ=    0.1535    7.6839    1.1887 Q=    0.4100 A=    0.0000 R=    0.0000 C=    0.0000
 XYZ=   -2.2058   -3.7535    5.1524 Q=   -0.8200 A=    0.0000 R=    0.0000 C=    0.0000
 XYZ=   -2.6466   -3.9019    6.0377 Q=    0.4100 A=    0.0000 R=    0.0000 C=    0.0000
 XYZ=   -2.1319   -4.6246    4.6668 Q=    0.4100 A=    0.0000 R=    0.0000 C=    0.0000
 XYZ=   -1.9634   -5.7690    4.3082 Q=   -0.8200 A=    0.0000 R=    0.0000 C=    0.0000
 XYZ=   -1.0601   -5.8402    3.8853 Q=    0.4100 A=    0.0000 R=    0.0000 C=    0.0000
 XYZ=   -2.0419   -6.4437    5.0422 Q=    0.4100 A=    0.0000 R=    0.0000 C=    0.0000
 XYZ=    1.1653    4.7847   -5.5591 Q=   -0.8200 A=    0.0000 R=    0.0000 C=    0.0000
 XYZ=    1.9355    5.4199   -5.6165 Q=    0.4100 A=    0.0000 R=    0.0000 C=    0.0000
 XYZ=    1.1718    4.1801   -6.3557 Q=    0.4100 A=    0.0000 R=    0.0000 C=    0.0000
 XYZ=   -6.4233    1.5161   -1.4423 Q=   -0.8200 A=    0.0000 R=    0.0000 C=    0.0000
 XYZ=   -6.5670    0.5393   -1.6009 Q=    0.4100 A=    0.0000 R=    0.0000 C=    0.0000
 XYZ=   -6.7055    2.0303   -2.2523 Q=    0.4100 A=    0.0000 R=    0.0000 C=    0.0000
 XYZ=    5.4160   -0.3558    4.5430 Q=   -0.8200 A=    0.0000 R=    0.0000 C=    0.0000
 XYZ=    5.7400   -1.0034    5.2327 Q=    0.4100 A=    0.0000 R=    0.0000 C=    0.0000
 XYZ=    4.6553    0.1755    4.9160 Q=    0.4100 A=    0.0000 R=    0.0000 C=    0.0000
 XYZ=    5.1803   -3.8953   -6.4191 Q=   -0.8200 A=    0.0000 R=    0.0000 C=    0.0000
 XYZ=    5.3385   -3.3663   -5.5853 Q=    0.4100 A=    0.0000 R=    0.0000 C=    0.0000
 XYZ=    6.0586   -4.1542   -6.8211 Q=    0.4100 A=    0.0000 R=    0.0000 C=    0.0000
 XYZ=    4.3853   -1.7382   -7.7540 Q=   -0.8200 A=    0.0000 R=    0.0000 C=    0.0000
 XYZ=    4.5391   -2.6500   -7.3732 Q=    0.4100 A=    0.0000 R=    0.0000 C=    0.0000
 XYZ=    3.8281   -1.2019   -7.1200 Q=    0.4100 A=    0.0000 R=    0.0000 C=    0.0000
 XYZ=   -3.9900   -6.1537    2.8753 Q=   -0.8200 A=    0.0000 R=    0.0000 C=    0.0000
 XYZ=   -3.2053   -5.9549    3.4626 Q=    0.4100 A=    0.0000 R=    0.0000 C=    0.0000
 XYZ=   -3.6700   -6.5472    2.0135 Q=    0.4100 A=    0.0000 R=    0.0000 C=    0.0000
 XYZ=   -1.3125    8.0124   -1.2490 Q=   -0.8200 A=    0.0000 R=    0.0000 C=    0.0000
 XYZ=   -0.4884    8.5058   -1.5271 Q=    0.4100 A=    0.0000 R=    0.0000 C=    0.0000
 XYZ=   -1.2566    7.7925   -0.2750 Q=    0.4100 A=    0.0000 R=    0.0000 C=    0.0000
 XYZ=   -7.2711   -1.1905   -1.5294 Q=   -0.8200 A=    0.0000 R=    0.0000 C=    0.0000
 XYZ=   -7.5880   -1.6201   -2.3750 Q=    0.4100 A=    0.0000 R=    0.0000 C=    0.0000
 XYZ=   -6.8825   -1.8876   -0.9268 Q=    0.4100 A=    0.0000 R=    0.0000 C=    0.0000
 XYZ=    3.7859    4.7465    5.1314 Q=   -0.8200 A=    0.0000 R=    0.0000 C=    0.0000
 XYZ=    4.5394    4.8535    5.7802 Q=    0.4100 A=    0.0000 R=    0.0000 C=    0.0000
 XYZ=    2.9710    5.2031    5.4887 Q=    0.4100 A=    0.0000 R=    0.0000 C=    0.0000
 XYZ=   -3.9396    4.2306   -4.1927 Q=   -0.8200 A=    0.0000 R=    0.0000 C=    0.0000
 XYZ=   -4.0614    3.9898   -3.2297 Q=    0.4100 A=    0.0000 R=    0.0000 C=    0.0000
 XYZ=   -4.7208    3.8975   -4.7208 Q=    0.4100 A=    0.0000 R=    0.0000 C=    0.0000
 XYZ=    7.2194   -2.1007   -2.6848 Q=   -0.8200 A=    0.0000 R=    0.0000 C=    0.0000
 XYZ=    7.8038   -1.4766   -2.1661 Q=    0.4100 A=    0.0000 R=    0.0000 C=    0.0000
 XYZ=    6.9525   -2.8687   -2.1026 Q=    0.4100 A=    0.0000 R=    0.0000 C=    0.0000
 XYZ=    3.2976   -3.0147    5.9541 Q=   -0.8200 A=    0.0000 R=    0.0000 C=    0.0000
 XYZ=    3.0921   -2.6155    5.0606 Q=    0.4100 A=    0.0000 R=    0.0000 C=    0.0000
 XYZ=    3.6096   -2.2966    6.5762 Q=    0.4100 A=    0.0000 R=    0.0000 C=    0.0000
 XYZ=    4.9740    6.6110   -0.4967 Q=   -0.8200 A=    0.0000 R=    0.0000 C=    0.0000
 XYZ=    4.1903    7.0002   -0.0125 Q=    0.4100 A=    0.0000 R=    0.0000 C=    0.0000
 XYZ=    5.8074    6.7767    0.0305 Q=    0.4100 A=    0.0000 R=    0.0000 C=    0.0000
 XYZ=    6.6711   -2.4491    1.5445 Q=   -0.8200 A=    0.0000 R=    0.0000 C=    0.0000
 XYZ=    6.7015   -2.8974    0.6512 Q=    0.4100 A=    0.0000 R=    0.0000 C=    0.0000
 XYZ=    6.7499   -3.1374    2.2657 Q=    0.4100 A=    0.0000 R=    0.0000 C=    0.0000
 XYZ=   -5.6820   -4.6420    2.6699 Q=   -0.8200 A=    0.0000 R=    0.0000 C=    0.0000
 XYZ=   -6.0638   -4.4689    3.5778 Q=    0.4100 A=    0.0000 R=    0.0000 C=    0.0000
 XYZ=   -4.8936   -5.2519    2.7507 Q=    0.4100 A=    0.0000 R=    0.0000 C=    0.0000
 XYZ=   -7.7384    0.9137    2.2651 Q=   -0.8200 A=    0.0000 R=    0.0000 C=    0.0000
 XYZ=   -7.4900    1.5919    1.5735 Q=    0.4100 A=    0.0000 R=    0.0000 C=    0.0000
 XYZ=   -7.0420    0.8988    2.9826 Q=    0.4100 A=    0.0000 R=    0.0000 C=    0.0000
 XYZ=   -1.1052    4.6897   -5.9722 Q=   -0.8200 A=    0.0000 R=    0.0000 C=    0.0000
 XYZ=   -0.1679    4.8293   -5.6530 Q=    0.4100 A=    0.0000 R=    0.0000 C=    0.0000
 XYZ=   -1.7024    5.3808   -5.5650 Q=    0.4100 A=    0.0000 R=    0.0000 C=    0.0000
 XYZ=   -5.4142    4.8866   -0.4113 Q=   -0.8200 A=    0.0000 R=    0.0000 C=    0.0000
 XYZ=   -5.0481    5.8129   -0.3225 Q=    0.4100 A=    0.0000 R=    0.0000 C=    0.0000
 XYZ=   -6.2029    4.8974   -1.0261 Q=    0.4100 A=    0.0000 R=    0.0000 C=    0.0000
 XYZ=   -5.5752    4.3773    3.4357 Q=   -0.8200 A=    0.0000 R=    0.0000 C=    0.0000
 XYZ=   -6.3734    4.7341    2.9503 Q=    0.4100 A=    0.0000 R=    0.0000 C=    0.0000
 XYZ=   -5.8764    3.7743    4.1744 Q=    0.4100 A=    0.0000 R=    0.0000 C=    0.0000
 XYZ=   -6.2613   -5.2505    0.4861 Q=   -0.8200 A=    0.0000 R=    0.0000 C=    0.0000
 XYZ=   -5.5857   -5.9059    0.1484 Q=    0.4100 A=    0.0000 R=    0.0000 C=    0.0000
 XYZ=   -6.0814   -5.0530    1.4498 Q=    0.4100 A=    0.0000 R=    0.0000 C=    0.0000
 XYZ=   -2.7173    6.1351   -4.4744 Q=   -0.8200 A=    0.0000 R=    0.0000 C=    0.0000
 XYZ=   -2.2082    6.0800   -3.6154 Q=    0.4100 A=    0.0000 R=    0.0000 C=    0.0000
 XYZ=   -3.2949    5.3246   -4.5721 Q=    0.4100 A=    0.0000 R=    0.0000 C=    0.0000
 XYZ=    0.9143    1.6825    7.7768 Q=   -0.8200 A=    0.0000 R=    0.0000 C=    0.0000
 XYZ=    1.2163    0.8365    7.3374 Q=    0.4100 A=    0.0000 R=    0.0000 C=    0.0000
 XYZ=    0.0033    1.5486    8.1670 Q=    0.4100 A=    0.0000 R=    0.0000 C=    0.0000
 XYZ=    1.0030    4.2136    7.2517 Q=   -0.8200 A=    0.0000 R=    0.0000 C=    0.0000
 XYZ=    1.1057    4.3663    8.2347 Q=    0.4100 A=    0.0000 R=    0.0000 C=    0.0000
 XYZ=    0.9072    3.2340    7.0748 Q=    0.4100 A=    0.0000 R=    0.0000 C=    0.0000
 XYZ=   -6.4745    2.7733    5.1118 Q=   -0.8200 A=    0.0000 R=    0.0000 C=    0.0000
 XYZ=   -6.3270    2.6762    6.0961 Q=    0.4100 A=    0.0000 R=    0.0000 C=    0.0000
 XYZ=   -6.3726    1.8820    4.6700 Q=    0.4100 A=    0.0000 R=    0.0000 C=    0.0000
 XYZ=    7.0435    1.4914    4.2278 Q=   -0.8200 A=    0.0000 R=    0.0000 C=    0.0000
 XYZ=    6.5674    1.9397    3.4712 Q=    0.4100 A=    0.0000 R=    0.0000 C=    0.0000
 XYZ=    6.6142    0.6078    4.4147 Q=    0.4100 A=    0.0000 R=    0.0000 C=    0.0000
 XYZ=    4.9343   -3.8671    4.4882 Q=   -0.8200 A=    0.0000 R=    0.0000 C=    0.0000
 XYZ=    4.5988   -3.3818    3.6808 Q=    0.4100 A=    0.0000 R=    0.0000 C=    0.0000
 XYZ=    4.3731   -3.6251    5.2797 Q=    0.4100 A=    0.0000 R=    0.0000 C=    0.0000
 XYZ=    8.7088   -0.9335   -1.4781 Q=   -0.8200 A=    0.0000 R=    0.0000 C=    0.0000
 XYZ=    8.2419   -0.0967   -1.1918 Q=    0.4100 A=    0.0000 R=    0.0000 C=    0.0000
 XYZ=    9.3075   -1.2495   -0.7421 Q=    0.4100 A=    0.0000 R=    0.0000 C=    0.0000
 XYZ=   -8.0870   -1.3918    2.3225 Q=   -0.8200 A=    0.0000 R=    0.0000 C=    0.0000
 XYZ=   -7.2364   -1.8146    2.0098 Q=    0.4100 A=    0.0000 R=    0.0000 C=    0.0000
 XYZ=   -8.0069   -0.3969    2.2609 Q=    0.4100 A=    0.0000 R=    0.0000 C=    0.0000
 XYZ=    6.1458   -6.0826    1.4472 Q=   -0.8200 A=    0.0000 R=    0.0000 C=    0.0000
 XYZ=    5.9171   -5.3795    0.7738 Q=    0.4100 A=    0.0000 R=    0.0000 C=    0.0000
 XYZ=    5.5211   -6.8569    1.3460 Q=    0.4100 A=    0.0000 R=    0.0000 C=    0.0000
 XYZ=   -5.0222   -6.8075   -0.7959 Q=   -0.8200 A=    0.0000 R=    0.0000 C=    0.0000
 XYZ=   -5.3196   -6.6763   -1.7417 Q=    0.4100 A=    0.0000 R=    0.0000 C=    0.0000
 XYZ=   -5.1887   -7.7549   -0.5225 Q=    0.4100 A=    0.0000 R=    0.0000 C=    0.0000
 XYZ=    0.6425    8.9915   -1.9481 Q=   -0.8200 A=    0.0000 R=    0.0000 C=    0.0000
 XYZ=    0.5858    9.3233   -2.8897 Q=    0.4100 A=    0.0000 R=    0.0000 C=    0.0000
 XYZ=    1.2547    8.2018   -1.9093 Q=    0.4100 A=    0.0000 R=    0.0000 C=    0.0000
 XYZ=    6.7899    5.9301    2.7712 Q=   -0.8200 A=    0.0000 R=    0.0000 C=    0.0000
 XYZ=    5.8653    5.6215    2.9949 Q=    0.4100 A=    0.0000 R=    0.0000 C=    0.0000
 XYZ=    7.3836    5.1362    2.6402 Q=    0.4100 A=    0.0000 R=    0.0000 C=    0.0000
 XYZ=   -1.9595   -2.3545    8.1706 Q=   -0.8200 A=    0.0000 R=    0.0000 C=    0.0000
 XYZ=   -1.2403   -2.4503    7.4824 Q=    0.4100 A=    0.0000 R=    0.0000 C=    0.0000
 XYZ=   -1.6153   -2.6628    9.0575 Q=    0.4100 A=    0.0000 R=    0.0000 C=    0.0000
 XYZ=    1.2205   -4.5119    6.3289 Q=   -0.8200 A=    0.0000 R=    0.0000 C=    0.0000
 XYZ=    1.9923   -3.8836    6.2309 Q=    0.4100 A=    0.0000 R=    0.0000 C=    0.0000
 XYZ=    0.3720   -3.9882    6.4049 Q=    0.4100 A=    0.0000 R=    0.0000 C=    0.0000
 XYZ=    2.1199    3.6274   -7.8030 Q=   -0.8200 A=    0.0000 R=    0.0000 C=    0.0000
 XYZ=    2.7330    4.2747   -7.3500 Q=    0.4100 A=    0.0000 R=    0.0000 C=    0.0000
 XYZ=    2.5122    2.7087   -7.7568 Q=    0.4100 A=    0.0000 R=    0.0000 C=    0.0000
 XYZ=    7.1404   -5.9478   -2.9157 Q=   -0.8200 A=    0.0000 R=    0.0000 C=    0.0000
 XYZ=    6.2978   -5.7188   -3.4032 Q=    0.4100 A=    0.0000 R=    0.0000 C=    0.0000
 XYZ=    7.8785   -6.0913   -3.5751 Q=    0.4100 A=    0.0000 R=    0.0000 C=    0.0000
 XYZ=   -4.6529    5.9905    4.8303 Q=   -0.8200 A=    0.0000 R=    0.0000 C=    0.0000
 XYZ=   -5.4603    6.1240    5.4050 Q=    0.4100 A=    0.0000 R=    0.0000 C=    0.0000
 XYZ=   -4.8749    5.3622    4.0846 Q=    0.4100 A=    0.0000 R=    0.0000 C=    0.0000
 XYZ=    3.6361   -5.8642    3.4843 Q=   -0.8200 A=    0.0000 R=    0.0000 C=    0.0000
 XYZ=    2.7923   -5.9741    4.0096 Q=    0.4100 A=    0.0000 R=    0.0000 C=    0.0000
 XYZ=    4.2926   -5.3294    4.0163 Q=    0.4100 A=    0.0000 R=    0.0000 C=    0.0000
 XYZ=    3.2906    1.5814   -7.9656 Q=   -0.8200 A=    0.0000 R=    0.0000 C=    0.0000
 XYZ=    4.2414    1.7711   -8.2102 Q=    0.4100 A=    0.0000 R=    0.0000 C=    0.0000
 XYZ=    2.7681    1.3762   -8.7932 Q=    0.4100 A=    0.0000 R=    0.0000 C=    0.0000
 XYZ=    7.3338    0.2279   -5.2793 Q=   -0.8200 A=    0.0000 R=    0.0000 C=    0.0000
 XYZ=    7.6973    1.1583   -5.2295 Q=    0.4100 A=    0.0000 R=    0.0000 C=    0.0000
 XYZ=    8.0446   -0.4224   -5.0114 Q=    0.4100 A=    0.0000 R=    0.0000 C=    0.0000
 XYZ=   -0.8260   -9.0943    2.8842 Q=   -0.8200 A=    0.0000 R=    0.0000 C=    0.0000
 XYZ=   -0.8979   -8.2282    2.3894 Q=    0.4100 A=    0.0000 R=    0.0000 C=    0.0000
 XYZ=   -0.4355   -9.7907    2.2821 Q=    0.4100 A=    0.0000 R=    0.0000 C=    0.0000
 XYZ=   -6.8610   -0.9222    5.6916 Q=   -0.8200 A=    0.0000 R=    0.0000 C=    0.0000
 XYZ=   -7.4848   -1.5721    5.2573 Q=    0.4100 A=    0.0000 R=    0.0000 C=    0.0000
 XYZ=   -5.9827   -1.3681    5.8647 Q=    0.4100 A=    0.0000 R=    0.0000 C=    0.0000
 XYZ=    9.1101    3.0608   -0.8032 Q=   -0.8200 A=    0.0000 R=    0.0000 C=    0.0000
 XYZ=    8.5798    2.2211   -0.9199 Q=    0.4100 A=    0.0000 R=    0.0000 C=    0.0000
 XYZ=    9.5764    3.0403    0.0812 Q=    0.4100 A=    0.0000 R=    0.0000 C=    0.0000
 XYZ=   -6.4754   -3.7466    4.8105 Q=   -0.8200 A=    0.0000 R=    0.0000 C=    0.0000
 XYZ=   -7.2722   -3.1793    4.6024 Q=    0.4100 A=    0.0000 R=    0.0000 C=    0.0000
 XYZ=   -5.7414   -3.1710    5.1710 Q=    0.4100 A=    0.0000 R=    0.0000 C=    0.0000
 XYZ=    5.9285    4.4935   -5.3583 Q=   -0.8200 A=    0.0000 R=    0.0000 C=    0.0000
 XYZ=    6.5199    5.2965   -5.2844 Q=    0.4100 A=    0.0000 R=    0.0000 C=    0.0000
 XYZ=    6.4356    3.7442   -5.7842 Q=    0.4100 A=    0.0000 R=    0.0000 C=    0.0000
 XYZ=    0.6086    8.0941    5.2607 Q=   -0.8200 A=    0.0000 R=    0.0000 C=    0.0000
 XYZ=    1.2519    7.3298    5.3060 Q=    0.4100 A=    0.0000 R=    0.0000 C=    0.0000
 XYZ=   -0.2604    7.8233    5.6748 Q=    0.4100 A=    0.0000 R=    0.0000 C=    0.0000
 XYZ=    1.4828   -6.3157    4.8291 Q=   -0.8200 A=    0.0000 R=    0.0000 C=    0.0000
 XYZ=    0.8736   -7.0438    5.1436 Q=    0.4100 A=    0.0000 R=    0.0000 C=    0.0000
 XYZ=    1.4174   -5.5348    5.4503 Q=    0.4100 A=    0.0000 R=    0.0000 C=    0.0000
 XYZ=    8.2768    3.9036    2.5977 Q=   -0.8200 A=    0.0000 R=    0.0000 C=    0.0000
 XYZ=    8.6177    3.3467    3.3552 Q=    0.4100 A=    0.0000 R=    0.0000 C=    0.0000
 XYZ=    7.4490    3.4858    2.2231 Q=    0.4100 A=    0.0000 R=    0.0000 C=    0.0000
 XYZ=   -2.6470    0.0612    8.5615 Q=   -0.8200 A=    0.0000 R=    0.0000 C=    0.0000
 XYZ=   -2.3641   -0.8566    8.2827 Q=    0.4100 A=    0.0000 R=    0.0000 C=    0.0000
 XYZ=   -3.4073    0.3645    7.9870 Q=    0.4100 A=    0.0000 R=    0.0000 C=    0.0000
 XYZ=    3.8530    5.0549   -6.7030 Q=   -0.8200 A=    0.0000 R=    0.0000 C=    0.0000
 XYZ=    4.6849    4.6393   -6.3353 Q=    0.4100 A=    0.0000 R=    0.0000 C=    0.0000
 XYZ=    4.0938    5.6881   -7.4386 Q=    0.4100 A=    0.0000 R=    0.0000 C=    0.0000
 XYZ=    4.4357   -5.5637   -8.0257 Q=   -0.8200 A=    0.0000 R=    0.0000 C=    0.0000
 XYZ=    5.1338   -5.5477   -8.7415 Q=    0.4100 A=    0.0000 R=    0.0000 C=    0.0000
 XYZ=    4.5399   -4.7594   -7.4406 Q=    0.4100 A=    0.0000 R=    0.0000 C=    0.0000
 XYZ=   -4.7606    7.0533   -0.2393 Q=   -0.8200 A=    0.0000 R=    0.0000 C=    0.0000
 XYZ=   -4.2013    7.6080   -0.8553 Q=    0.4100 A=    0.0000 R=    0.0000 C=    0.0000
 XYZ=   -5.4014    7.6437    0.2515 Q=    0.4100 A=    0.0000 R=    0.0000 C=    0.0000
 XYZ=   -1.3650    4.2426    7.7989 Q=   -0.8200 A=    0.0000 R=    0.0000 C=    0.0000
 XYZ=   -0.3933    4.3357    7.5816 Q=    0.4100 A=    0.0000 R=    0.0000 C=    0.0000
 XYZ=   -1.5584    3.2976    8.0626 Q=    0.4100 A=    0.0000 R=    0.0000 C=    0.0000
 XYZ=    0.0862    9.2320    3.2646 Q=   -0.8200 A=    0.0000 R=    0.0000 C=    0.0000
 XYZ=   -0.7470    8.8477    2.8667 Q=    0.4100 A=    0.0000 R=    0.0000 C=    0.0000
 XYZ=    0.2882    8.7681    4.1272 Q=    0.4100 A=    0.0000 R=    0.0000 C=    0.0000
 XYZ=   -3.4501    5.3764    6.8634 Q=   -0.8200 A=    0.0000 R=    0.0000 C=    0.0000
 XYZ=   -3.6096    5.5986    5.9015 Q=    0.4100 A=    0.0000 R=    0.0000 C=    0.0000
 XYZ=   -2.5376    4.9807    6.9672 Q=    0.4100 A=    0.0000 R=    0.0000 C=    0.0000
 XYZ=   -3.3970   -3.7806    7.1336 Q=   -0.8200 A=    0.0000 R=    0.0000 C=    0.0000
 XYZ=   -2.7926   -3.1221    7.5822 Q=    0.4100 A=    0.0000 R=    0.0000 C=    0.0000
 XYZ=   -3.5924   -4.5346    7.7607 Q=    0.4100 A=    0.0000 R=    0.0000 C=    0.0000
 XYZ=    6.4257   -0.4771   -7.6916 Q=   -0.8200 A=    0.0000 R=    0.0000 C=    0.0000
 XYZ=    6.8530   -0.4376   -6.7883 Q=    0.4100 A=    0.0000 R=    0.0000 C=    0.0000
 XYZ=    5.5078   -0.8652   -7.6095 Q=    0.4100 A=    0.0000 R=    0.0000 C=    0.0000
 XYZ=   -8.5021    3.9533    1.5373 Q=   -0.8200 A=    0.0000 R=    0.0000 C=    0.0000
 XYZ=   -7.9426    3.3592    0.9593 Q=    0.4100 A=    0.0000 R=    0.0000 C=    0.0000
 XYZ=   -9.2700    3.4307    1.9079 Q=    0.4100 A=    0.0000 R=    0.0000 C=    0.0000
 XYZ=   -3.6824    8.5604   -1.6585 Q=   -0.8200 A=    0.0000 R=    0.0000 C=    0.0000
 XYZ=   -4.1347    9.2973   -1.1562 Q=    0.4100 A=    0.0000 R=    0.0000 C=    0.0000
 XYZ=   -2.7285    8.4940   -1.3657 Q=    0.4100 A=    0.0000 R=    0.0000 C=    0.0000
 XYZ=   -5.6993    2.9195   -5.5041 Q=   -0.8200 A=    0.0000 R=    0.0000 C=    0.0000
 XYZ=   -6.0193    2.9678   -6.4502 Q=    0.4100 A=    0.0000 R=    0.0000 C=    0.0000
 XYZ=   -5.2233    2.0523   -5.3571 Q=    0.4100 A=    0.0000 R=    0.0000 C=    0.0000
 XYZ=    8.0078    4.5649   -2.0973 Q=   -0.8200 A=    0.0000 R=    0.0000 C=    0.0000
 XYZ=    8.4860    4.0188   -1.4094 Q=    0.4100 A=    0.0000 R=    0.0000 C=    0.0000
 XYZ=    8.0157    5.5267   -1.8237 Q=    0.4100 A=    0.0000 R=    0.0000 C=    0.0000
 XYZ=   -2.3244    8.7480    2.5181 Q=   -0.8200 A=    0.0000 R=    0.0000 C=    0.0000
 XYZ=   -2.7404    8.4337    3.3715 Q=    0.4100 A=    0.0000 R=    0.0000 C=    0.0000
 XYZ=   -2.7090    9.6363    2.2672 Q=    0.4100 A=    0.0000 R=    0.0000 C=    0.0000
 XYZ=    8.8240   -1.7341   -4.7410 Q=   -0.8200 A=    0.0000 R=    0.0000 C=    0.0000
 XYZ=    9.6449   -1.5548   -4.1987 Q=    0.4100 A=    0.0000 R=    0.0000 C=    0.0000
 XYZ=    8.1763   -2.2689   -4.1983 Q=    0.4100 A=    0.0000 R=    0.0000 C=    0.0000
 XYZ=   -1.9377    3.9240   -8.0435 Q=   -0.8200 A=    0.0000 R=    0.0000 C=    0.0000
 XYZ=   -1.6510    4.2971   -7.1611 Q=    0.4100 A=    0.0000 R=    0.0000 C=    0.0000
 XYZ=   -2.4015    4.6357   -8.5713 Q=    0.4100 A=    0.0000 R=    0.0000 C=    0.0000
 XYZ=   -1.1779    1.7826    8.8167 Q=   -0.8200 A=    0.0000 R=    0.0000 C=    0.0000
 XYZ=   -1.7610    0.9702    8.8224 Q=    0.4100 A=    0.0000 R=    0.0000 C=    0.0000
 XYZ=   -0.8594    1.9708    9.7457 Q=    0.4100 A=    0.0000 R=    0.0000 C=    0.0000
 XYZ=   -1.6181   -1.6714   -9.7881 Q=   -0.8200 A=    0.0000 R=    0.0000 C=    0.0000
 XYZ=   -1.5579   -2.5612  -10.2404 Q=    0.4100 A=    0.0000 R=    0.0000 C=    0.0000
 XYZ=   -2.2403   -1.7355   -9.0079 Q=    0.4100 A=    0.0000 R=    0.0000 C=    0.0000
 XYZ=   -3.4318    7.9711    4.4939 Q=   -0.8200 A=    0.0000 R=    0.0000 C=    0.0000
 XYZ=   -3.8156    7.0479    4.4709 Q=    0.4100 A=    0.0000 R=    0.0000 C=    0.0000
 XYZ=   -4.0955    8.5979    4.9023 Q=    0.4100 A=    0.0000 R=    0.0000 C=    0.0000
 XYZ=   -5.5642   -7.1696    4.3950 Q=   -0.8200 A=    0.0000 R=    0.0000 C=    0.0000
 XYZ=   -4.9499   -6.6594    3.7931 Q=    0.4100 A=    0.0000 R=    0.0000 C=    0.0000
 XYZ=   -6.1219   -6.5288    4.9226 Q=    0.4100 A=    0.0000 R=    0.0000 C=    0.0000
 XYZ=   -0.3615   -7.0936   -7.8341 Q=   -0.8200 A=    0.0000 R=    0.0000 C=    0.0000
 XYZ=   -0.6899   -6.1992   -8.1378 Q=    0.4100 A=    0.0000 R=    0.0000 C=    0.0000
 XYZ=   -1.0620   -7.5324   -7.2713 Q=    0.4100 A=    0.0000 R=    0.0000 C=    0.0000
 XYZ=    9.7152   -0.1380    2.0793 Q=   -0.8200 A=    0.0000 R=    0.0000 C=    0.0000
 XYZ=   10.0234    0.4191    2.8505 Q=    0.4100 A=    0.0000 R=    0.0000 C=    0.0000
 XYZ=    8.7370    0.0086    1.9320 Q=    0.4100 A=    0.0000 R=    0.0000 C=    0.0000
 XYZ=    6.9500   -4.3620    2.9799 Q=   -0.8200 A=    0.0000 R=    0.0000 C=    0.0000
 XYZ=    6.3250   -4.1181    3.7214 Q=    0.4100 A=    0.0000 R=    0.0000 C=    0.0000
 XYZ=    6.5992   -5.1656    2.4991 Q=    0.4100 A=    0.0000 R=    0.0000 C=    0.0000
 XYZ=    8.4643   -5.0039   -1.2331 Q=   -0.8200 A=    0.0000 R=    0.0000 C=    0.0000
 XYZ=    9.4056   -5.3134   -1.3686 Q=    0.4100 A=    0.0000 R=    0.0000 C=    0.0000
 XYZ=    7.8894   -5.3510   -1.9741 Q=    0.4100 A=    0.0000 R=    0.0000 C=    0.0000
 XYZ=   -7.1130    2.6988   -3.4571 Q=   -0.8200 A=    0.0000 R=    0.0000 C=    0.0000
 XYZ=   -6.5186    2.7618   -4.2588 Q=    0.4100 A=    0.0000 R=    0.0000 C=    0.0000
 XYZ=   -8.0191    2.3823   -3.7381 Q=    0.4100 A=    0.0000 R=    0.0000 C=    0.0000
 XYZ=    0.2290    4.0453   -9.1772 Q=   -0.8200 A=    0.0000 R=    0.0000 C=    0.0000
 XYZ=   -0.6830    3.9235   -8.7855 Q=    0.4100 A=    0.0000 R=    0.0000 C=    0.0000
 XYZ=    0.9188    3.7699   -8.5077 Q=    0.4100 A=    0.0000 R=    0.0000 C=    0.0000
 XYZ=   -5.4078    1.0846   -7.5955 Q=   -0.8200 A=    0.0000 R=    0.0000 C=    0.0000
 XYZ=   -5.4814    0.2247   -8.1005 Q=    0.4100 A=    0.0000 R=    0.0000 C=    0.0000
 XYZ=   -5.1005    0.8979   -6.6624 Q=    0.4100 A=    0.0000 R=    0.0000 C=    0.0000
 XYZ=   -8.2363   -6.2265    1.2137 Q=   -0.8200 A=    0.0000 R=    0.0000 C=    0.0000
 XYZ=   -8.8277   -6.5041    0.4565 Q=    0.4100 A=    0.0000 R=    0.0000 C=    0.0000
 XYZ=   -7.5081   -5.6346    0.8681 Q=    0.4100 A=    0.0000 R=    0.0000 C=    0.0000
 XYZ=   -9.4203   -0.1934   -1.0422 Q=   -0.8200 A=    0.0000 R=    0.0000 C=    0.0000
 XYZ=   -9.3682    0.7227   -1.4399 Q=    0.4100 A=    0.0000 R=    0.0000 C=    0.0000
 XYZ=   -8.5864   -0.6999   -1.2617 Q=    0.4100 A=    0.0000 R=    0.0000 C=    0.0000
 XYZ=    6.7881    2.9265    6.1699 Q=   -0.8200 A=    0.0000 R=    0.0000 C=    0.0000
 XYZ=    7.0237    2.3802    5.3661 Q=    0.4100 A=    0.0000 R=    0.0000 C=    0.0000
 XYZ=    7.5456    2.9036    6.8223 Q=    0.4100 A=    0.0000 R=    0.0000 C=    0.0000
 XYZ=    6.7511   -7.7421   -1.5650 Q=   -0.8200 A=    0.0000 R=    0.0000 C=    0.0000
 XYZ=    7.6498   -8.1120   -1.3292 Q=    0.4100 A=    0.0000 R=    0.0000 C=    0.0000
 XYZ=    6.8485   -7.0754   -2.3040 Q=    0.4100 A=    0.0000 R=    0.0000 C=    0.0000
 XYZ=    3.2473   -7.4316   -7.4657 Q=   -0.8200 A=    0.0000 R=    0.0000 C=    0.0000
 XYZ=    3.6575   -6.5446   -7.6777 Q=    0.4100 A=    0.0000 R=    0.0000 C=    0.0000
 XYZ=    3.8721   -7.9586   -6.8896 Q=    0.4100 A=    0.0000 R=    0.0000 C=    0.0000
 XYZ=    5.5347    1.7634   -8.3579 Q=   -0.8200 A=    0.0000 R=    0.0000 C=    0.0000
 XYZ=    5.9454    2.4338   -7.7398 Q=    0.4100 A=    0.0000 R=    0.0000 C=    0.0000
 XYZ=    5.9380    0.8640   -8.1895 Q=    0.4100 A=    0.0000 R=    0.0000 C=    0.0000
 XYZ=    7.0371    7.2013    0.7428 Q=   -0.8200 A=    0.0000 R=    0.0000 C=    0.0000
 XYZ=    7.3493    8.1379    0.9018 Q=    0.4100 A=    0.0000 R=    0.0000 C=    0.0000
 XYZ=    6.8939    6.7442    1.6206 Q=    0.4100 A=    0.0000 R=    0.0000 C=    0.0000
 XYZ=   -1.7257    7.7570    6.0196 Q=   -0.8200 A=    0.0000 R=    0.0000 C=    0.0000
 XYZ=   -2.3884    7.8062    5.2724 Q=    0.4100 A=    0.0000 R=    0.0000 C=    0.0000
 XYZ=   -2.2052    7.5803    6.8792 Q=    0.4100 A=    0.0000 R=    0.0000 C=    0.0000
 XYZ=    8.3802    2.3569   -5.1873 Q=   -0.8200 A=    0.0000 R=    0.0000 C=    0.0000
 XYZ=    8.5212    3.3245   -4.9778 Q=    0.4100 A=    0.0000 R=    0.0000 C=    0.0000
 XYZ=    9.1407    1.8219   -4.8191 Q=    0.4100 A=    0.0000 R=    0.0000 C=    0.0000
 XYZ=    6.9574    3.0366   -6.9293 Q=   -0.8200 A=    0.0000 R=    0.0000 C=    0.0000
 XYZ=    7.4975    3.7321   -7.4031 Q=    0.4100 A=    0.0000 R=    0.0000 C=    0.0000
 XYZ=    7.5513    2.5117   -6.3196 Q=    0.4100 A=    0.0000 R=    0.0000 C=    0.0000
 XYZ=   -6.3535   -6.7827   -3.1793 Q=   -0.8200 A=    0.0000 R=    0.0000 C=    0.0000
 XYZ=   -7.2952   -6.7823   -2.8425 Q=    0.4100 A=    0.0000 R=    0.0000 C=    0.0000
 XYZ=   -6.3266   -6.3795   -4.0940 Q=    0.4100 A=    0.0000 R=    0.0000 C=    0.0000
 XYZ=   -0.1492   -8.0832    4.9904 Q=   -0.8200 A=    0.0000 R=    0.0000 C=    0.0000
 XYZ=   -0.8757   -7.7587    5.5962 Q=    0.4100 A=    0.0000 R=    0.0000 C=    0.0000
 XYZ=   -0.5537   -8.4611    4.1575 Q=    0.4100 A=    0.0000 R=    0.0000 C=    0.0000
 XYZ=    4.1443   -1.2089    7.4164 Q=   -0.8200 A=    0.0000 R=    0.0000 C=    0.0000
 XYZ=    4.3374   -1.0714    8.3879 Q=    0.4100 A=    0.0000 R=    0.0000 C=    0.0000
 XYZ=    5.0050   -1.2700    6.9110 Q=    0.4100 A=    0.0000 R=    0.0000 C=    0.0000
 XYZ=   -3.5472    8.2917   -3.9909 Q=   -0.8200 A=    0.0000 R=    0.0000 C=    0.0000
 XYZ=   -3.6204    8.3300   -2.9943 Q=    0.4100 A=    0.0000 R=    0.0000 C=    0.0000
 XYZ=   -3.1880    7.3994   -4.2645 Q=    0.4100 A=    0.0000 R=    0.0000 C=    0.0000
 XYZ=   -7.2930    4.7609   -2.0210 Q=   -0.8200 A=    0.0000 R=    0.0000 C=    0.0000
 XYZ=   -7.9284    5.4904   -2.2747 Q=    0.4100 A=    0.0000 R=    0.0000 C=    0.0000
 XYZ=   -7.3076    4.0476   -2.7218 Q=    0.4100 A=    0.0000 R=    0.0000 C=    0.0000
 XYZ=   -3.5353   -9.3449    0.8288 Q=   -0.8200 A=    0.0000 R=    0.0000 C=    0.0000
 XYZ=   -4.4475   -9.2897    0.4227 Q=    0.4100 A=    0.0000 R=    0.0000 C=    0.0000
 XYZ=   -2.9920  -10.0251    0.3366 Q=    0.4100 A=    0.0000 R=    0.0000 C=    0.0000
 XYZ=    5.7028    4.9004    6.4631 Q=   -0.8200 A=    0.0000 R=    0.0000 C=    0.0000
 XYZ=    6.4176    5.5908    6.5746 Q=    0.4100 A=    0.0000 R=    0.0000 C=    0.0000
 XYZ=    6.1239    4.0030    6.3316 Q=    0.4100 A=    0.0000 R=    0.0000 C=    0.0000
 XYZ=    8.9805    4.5939   -4.3148 Q=   -0.8200 A=    0.0000 R=    0.0000 C=    0.0000
 XYZ=    8.5653    4.4243   -3.4210 Q=    0.4100 A=    0.0000 R=    0.0000 C=    0.0000
 XYZ=    9.9731    4.6620   -4.2136 Q=    0.4100 A=    0.0000 R=    0.0000 C=    0.0000
 XYZ=    5.3830    1.5189    7.4277 Q=   -0.8200 A=    0.0000 R=    0.0000 C=    0.0000
 XYZ=    6.0641    2.1010    6.9834 Q=    0.4100 A=    0.0000 R=    0.0000 C=    0.0000
 XYZ=    5.1031    1.9344    8.2932 Q=    0.4100 A=    0.0000 R=    0.0000 C=    0.0000
 XYZ=   -8.3774   -2.4945    4.5141 Q=   -0.8200 A=    0.0000 R=    0.0000 C=    0.0000
 XYZ=   -8.5059   -2.1581    3.5812 Q=    0.4100 A=    0.0000 R=    0.0000 C=    0.0000
 XYZ=   -9.0898   -3.1627    4.7285 Q=    0.4100 A=    0.0000 R=    0.0000 C=    0.0000
 XYZ=  -10.1324    0.6894    2.7459 Q=   -0.8200 A=    0.0000 R=    0.0000 C=    0.0000
 XYZ=   -9.1328    0.7103    2.7688 Q=    0.4100 A=    0.0000 R=    0.0000 C=    0.0000
 XYZ=  -10.4363    0.0727    2.0197 Q=    0.4100 A=    0.0000 R=    0.0000 C=    0.0000
 XYZ=    0.9611   -4.3116   -9.8016 Q=   -0.8200 A=    0.0000 R=    0.0000 C=    0.0000
 XYZ=    1.4682   -3.5979  -10.2850 Q=    0.4100 A=    0.0000 R=    0.0000 C=    0.0000
 XYZ=    1.4511   -5.1798   -9.8799 Q=    0.4100 A=    0.0000 R=    0.0000 C=    0.0000
 XYZ=    4.4444   -2.1268  -10.1801 Q=   -0.8200 A=    0.0000 R=    0.0000 C=    0.0000
 XYZ=    4.5318   -1.7345   -9.2644 Q=    0.4100 A=    0.0000 R=    0.0000 C=    0.0000
 XYZ=    5.2967   -2.5873  -10.4281 Q=    0.4100 A=    0.0000 R=    0.0000 C=    0.0000
 XYZ=    0.6645   -0.6531  -10.5155 Q=   -0.8200 A=    0.0000 R=    0.0000 C=    0.0000
 XYZ=    1.2381   -1.4722  -10.5294 Q=    0.4100 A=    0.0000 R=    0.0000 C=    0.0000
 XYZ=   -0.2412   -0.8865  -10.1616 Q=    0.4100 A=    0.0000 R=    0.0000 C=    0.0000
 XYZ=   -5.2050    4.3360    8.0866 Q=   -0.8200 A=    0.0000 R=    0.0000 C=    0.0000
 XYZ=   -5.9450    4.9980    8.2051 Q=    0.4100 A=    0.0000 R=    0.0000 C=    0.0000
 XYZ=   -4.5014    4.7254    7.4922 Q=    0.4100 A=    0.0000 R=    0.0000 C=    0.0000
 XYZ=   -3.0552    2.0341   -8.5503 Q=   -0.8200 A=    0.0000 R=    0.0000 C=    0.0000
 XYZ=   -3.9013    1.8716   -8.0424 Q=    0.4100 A=    0.0000 R=    0.0000 C=    0.0000
 XYZ=   -2.6354    2.8852   -8.2350 Q=    0.4100 A=    0.0000 R=    0.0000 C=    0.0000
 XYZ=    0.7597   10.7929   -0.1497 Q=   -0.8200 A=    0.0000 R=    0.0000 C=    0.0000
 XYZ=    1.7284   10.9884    0.0037 Q=    0.4100 A=    0.0000 R=    0.0000 C=    0.0000
 XYZ=    0.6615   10.2036   -0.9516 Q=    0.4100 A=    0.0000 R=    0.0000 C=    0.0000
 XYZ=    9.0855    2.4090    4.3621 Q=   -0.8200 A=    0.0000 R=    0.0000 C=    0.0000
 XYZ=    8.2032    1.9410    4.3124 Q=    0.4100 A=    0.0000 R=    0.0000 C=    0.0000
 XYZ=    9.8211    1.7517    4.1987 Q=    0.4100 A=    0.0000 R=    0.0000 C=    0.0000
 XYZ=   -9.9870   -1.0365    1.1023 Q=   -0.8200 A=    0.0000 R=    0.0000 C=    0.0000
 XYZ=   -9.6278   -0.7916    0.2017 Q=    0.4100 A=    0.0000 R=    0.0000 C=    0.0000
 XYZ=   -9.2385   -1.3534    1.6847 Q=    0.4100 A=    0.0000 R=    0.0000 C=    0.0000
 XYZ=   -9.1198    3.8277   -0.8484 Q=   -0.8200 A=    0.0000 R=    0.0000 C=    0.0000
 XYZ=   -8.2593    4.0489   -1.3073 Q=    0.4100 A=    0.0000 R=    0.0000 C=    0.0000
 XYZ=   -8.9814    3.8371    0.1419 Q=    0.4100 A=    0.0000 R=    0.0000 C=    0.0000
 XYZ=   10.6422   -0.8712   -3.0573 Q=   -0.8200 A=    0.0000 R=    0.0000 C=    0.0000
 XYZ=    9.8589   -1.1417   -2.4975 Q=    0.4100 A=    0.0000 R=    0.0000 C=    0.0000
 XYZ=   11.4850   -0.9958   -2.5337 Q=    0.4100 A=    0.0000 R=    0.0000 C=    0.0000
 XYZ=   -8.0792    0.6912    7.0020 Q=   -0.8200 A=    0.0000 R=    0.0000 C=    0.0000
 XYZ=   -7.6846    0.0752    6.3202 Q=    0.4100 A=    0.0000 R=    0.0000 C=    0.0000
 XYZ=   -7.4713    1.4740    7.1353 Q=    0.4100 A=    0.0000 R=    0.0000 C=    0.0000
 XYZ=   -6.3495   -6.1013   -5.5779 Q=   -0.8200 A=    0.0000 R=    0.0000 C=    0.0000
 XYZ=   -6.0794   -5.2305   -5.9887 Q=    0.4100 A=    0.0000 R=    0.0000 C=    0.0000
 XYZ=   -7.2734   -6.3390   -5.8778 Q=    0.4100 A=    0.0000 R=    0.0000 C=    0.0000
 XYZ=    2.4034    2.2617    9.8873 Q=   -0.8200 A=    0.0000 R=    0.0000 C=    0.0000
 XYZ=    3.3919    2.3068    9.7426 Q=    0.4100 A=    0.0000 R=    0.0000 C=    0.0000
 XYZ=    1.9627    1.8977    9.0668 Q=    0.4100 A=    0.0000 R=    0.0000 C=    0.0000
 XYZ=    8.9179   -4.7970    1.2670 Q=   -0.8200 A=    0.0000 R=    0.0000 C=    0.0000
 XYZ=    8.2607   -4.3999    1.9077 Q=    0.4100 A=    0.0000 R=    0.0000 C=    0.0000
 XYZ=    8.6259   -4.6073    0.3296 Q=    0.4100 A=    0.0000 R=    0.0000 C=    0.0000
 XYZ=    7.8415    6.8282   -1.5627 Q=   -0.8200 A=    0.0000 R=    0.0000 C=    0.0000
 XYZ=    7.0643    7.0889   -2.1355 Q=    0.4100 A=    0.0000 R=    0.0000 C=    0.0000
 XYZ=    7.5779    6.8802   -0.5995 Q=    0.4100 A=    0.0000 R=    0.0000 C=    0.0000
 XYZ=    2.2448    1.1959   -9.9481 Q=   -0.8200 A=    0.0000 R=    0.0000 C=    0.0000
 XYZ=    1.7150    1.9945  -10.2338 Q=    0.4100 A=    0.0000 R=    0.0000 C=    0.0000
 XYZ=    1.7136    0.3656  -10.1172 Q=    0.4100 A=    0.0000 R=    0.0000 C=    0.0000
 XYZ=   -8.1720    4.7599    5.0147 Q=   -0.8200 A=    0.0000 R=    0.0000 C=    0.0000
 XYZ=   -7.7633    3.8677    5.2071 Q=    0.4100 A=    0.0000 R=    0.0000 C=    0.0000
 XYZ=   -7.6946    5.4652    5.5387 Q=    0.4100 A=    0.0000 R=    0.0000 C=    0.0000
 XYZ=   -2.4895   -8.0605   -7.0230 Q=   -0.8200 A=    0.0000 R=    0.0000 C=    0.0000
 XYZ=   -2.6858   -8.1496   -7.9995 Q=    0.4100 A=    0.0000 R=    0.0000 C=    0.0000
 XYZ=   -3.3453   -7.9333   -6.5214 Q=    0.4100 A=    0.0000 R=    0.0000 C=    0.0000
 XYZ=   -5.5534   -8.8193   -3.8626 Q=   -0.8200 A=    0.0000 R=    0.0000 C=    0.0000
 XYZ=   -5.8435   -7.9586   -3.4442 Q=    0.4100 A=    0.0000 R=    0.0000 C=    0.0000
 XYZ=   -6.3570   -9.3234   -4.1792 Q=    0.4100 A=    0.0000 R=    0.0000 C=    0.0000
 XYZ=   -7.7925    5.7824    2.8603 Q=   -0.8200 A=    0.0000 R=    0.0000 C=    0.0000
 XYZ=   -7.8984    5.4672    3.8034 Q=    0.4100 A=    0.0000 R=    0.0000 C=    0.0000
 XYZ=   -8.1818    5.1045    2.2366 Q=    0.4100 A=    0.0000 R=    0.0000 C=    0.0000
 XYZ=    1.5382   -7.9143   -8.7583 Q=   -0.8200 A=    0.0000 R=    0.0000 C=    0.0000
 XYZ=    0.6955   -7.6888   -8.2692 Q=    0.4100 A=    0.0000 R=    0.0000 C=    0.0000
 XYZ=    2.3200   -7.8005   -8.1452 Q=    0.4100 A=    0.0000 R=    0.0000 C=    0.0000
 XYZ=   -4.6388   -7.6831   -5.9136 Q=   -0.8200 A=    0.0000 R=    0.0000 C=    0.0000
 XYZ=   -5.2339   -6.8894   -5.7874 Q=    0.4100 A=    0.0000 R=    0.0000 C=    0.0000
 XYZ=   -4.8602   -8.3777   -5.2291 Q=    0.4100 A=    0.0000 R=    0.0000 C=    0.0000
 XYZ=   -6.4598    2.3929    7.6064 Q=   -0.8200 A=    0.0000 R=    0.0000 C=    0.0000
 XYZ=   -6.5027    1.8756    8.4611 Q=    0.4100 A=    0.0000 R=    0.0000 C=    0.0000
 XYZ=   -5.9412    3.2354    7.7524 Q=    0.4100 A=    0.0000 R=    0.0000 C=    0.0000
 XYZ=    0.4458   -4.9977    8.6250 Q=   -0.8200 A=    0.0000 R=    0.0000 C=    0.0000
 XYZ=    1.0118   -4.9683    7.8011 Q=    0.4100 A=    0.0000 R=    0.0000 C=    0.0000
 XYZ=    0.8431   -5.6409    9.2795 Q=    0.4100 A=    0.0000 R=    0.0000 C=    0.0000
 XYZ=    6.1763   -1.6917    6.4594 Q=   -0.8200 A=    0.0000 R=    0.0000 C=    0.0000
 XYZ=    6.6880   -0.9819    6.9436 Q=    0.4100 A=    0.0000 R=    0.0000 C=    0.0000
 XYZ=    6.5989   -2.5819    6.6295 Q=    0.4100 A=    0.0000 R=    0.0000 C=    0.0000
 XYZ=    0.7987   11.1533    2.1754 Q=   -0.8200 A=    0.0000 R=    0.0000 C=    0.0000
 XYZ=    0.4610   10.4226    2.7687 Q=    0.4100 A=    0.0000 R=    0.0000 C=    0.0000
 XYZ=    0.6808   10.8872    1.2187 Q=    0.4100 A=    0.0000 R=    0.0000 C=    0.0000
 XYZ=   -5.6149   -9.0156   -0.1286 Q=   -0.8200 A=    0.0000 R=    0.0000 C=    0.0000
 XYZ=   -6.4632   -8.8086    0.3588 Q=    0.4100 A=    0.0000 R=    0.0000 C=    0.0000
 XYZ=   -5.8168   -9.5961   -0.9174 Q=    0.4100 A=    0.0000 R=    0.0000 C=    0.0000
 XYZ=   -5.8340   -4.3843   -7.2580 Q=   -0.8200 A=    0.0000 R=    0.0000 C=    0.0000
 XYZ=   -5.3802   -4.8504   -8.0176 Q=    0.4100 A=    0.0000 R=    0.0000 C=    0.0000
 XYZ=   -6.5182   -3.7497   -7.6174 Q=    0.4100 A=    0.0000 R=    0.0000 C=    0.0000
 XYZ=   10.8177    2.6425   -2.3755 Q=   -0.8200 A=    0.0000 R=    0.0000 C=    0.0000
 XYZ=   10.1133    2.8147   -1.6868 Q=    0.4100 A=    0.0000 R=    0.0000 C=    0.0000
 XYZ=   11.5417    2.0788   -1.9779 Q=    0.4100 A=    0.0000 R=    0.0000 C=    0.0000
 XYZ=   10.1388   -1.7201    0.2818 Q=   -0.8200 A=    0.0000 R=    0.0000 C=    0.0000
 XYZ=   10.7034   -2.4825    0.5982 Q=    0.4100 A=    0.0000 R=    0.0000 C=    0.0000
 XYZ=   10.0501   -1.0447    1.0139 Q=    0.4100 A=    0.0000 R=    0.0000 C=    0.0000
 XYZ=   -1.2078   -3.7663  -10.7466 Q=   -0.8200 A=    0.0000 R=    0.0000 C=    0.0000
 XYZ=   -0.3468   -4.0672  -10.3364 Q=    0.4100 A=    0.0000 R=    0.0000 C=    0.0000
 XYZ=   -1.1732   -3.9084  -11.7359 Q=    0.4100 A=    0.0000 R=    0.0000 C=    0.0000
 XYZ=    0.3494    9.4048   -4.2780 Q=   -0.8200 A=    0.0000 R=    0.0000 C=    0.0000
 XYZ=   -0.5732    9.6340   -4.5882 Q=    0.4100 A=    0.0000 R=    0.0000 C=    0.0000
 XYZ=    0.7859    8.8028   -4.9467 Q=    0.4100 A=    0.0000 R=    0.0000 C=    0.0000
 XYZ=    7.0504   -4.4696   -7.4802 Q=   -0.8200 A=    0.0000 R=    0.0000 C=    0.0000
 XYZ=    7.8423   -4.9420   -7.0931 Q=    0.4100 A=    0.0000 R=    0.0000 C=    0.0000
 XYZ=    6.7017   -4.9883   -8.2608 Q=    0.4100 A=    0.0000 R=    0.0000 C=    0.0000
 XYZ=   -2.2554   -7.3372    6.3163 Q=   -0.8200 A=    0.0000 R=    0.0000 C=    0.0000
 XYZ=   -1.9249   -6.9818    7.1907 Q=    0.4100 A=    0.0000 R=    0.0000 C=    0.0000
 XYZ=   -3.0410   -7.9353    6.4752 Q=    0.4100 A=    0.0000 R=    0.0000 C=    0.0000
 XYZ=    2.1815   -2.5025  -10.7354 Q=   -0.8200 A=    0.0000 R=    0.0000 C=    0.0000
 XYZ=    3.1090   -2.3814  -10.3817 Q=    0.4100 A=    0.0000 R=    0.0000 C=    0.0000
 XYZ=    2.2207   -2.6859  -11.7177 Q=    0.4100 A=    0.0000 R=    0.0000 C=    0.0000
 XYZ=   -7.3403   -5.7530    5.4355 Q=   -0.8200 A=    0.0000 R=    0.0000 C=    0.0000
 XYZ=   -7.8576   -6.0745    4.6423 Q=    0.4100 A=    0.0000 R=    0.0000 C=    0.0000
 XYZ=   -6.9013   -4.8817    5.2161 Q=    0.4100 A=    0.0000 R=    0.0000 C=    0.0000
 XYZ=   -2.8227  -10.4542    2.8202 Q=   -0.8200 A=    0.0000 R=    0.0000 C=    0.0000
 XYZ=   -1.9912   -9.9983    3.1378 Q=    0.4100 A=    0.0000 R=    0.0000 C=    0.0000
 XYZ=   -3.1619   -9.9948    1.9993 Q=    0.4100 A=    0.0000 R=    0.0000 C=    0.0000
 XYZ=    7.6547   -2.2418   -8.5380 Q=   -0.8200 A=    0.0000 R=    0.0000 C=    0.0000
 XYZ=    7.1172   -1.5053   -8.1273 Q=    0.4100 A=    0.0000 R=    0.0000 C=    0.0000
 XYZ=    7.3932   -3.1148   -8.1261 Q=    0.4100 A=    0.0000 R=    0.0000 C=    0.0000
 XYZ=    8.2917    6.6090    4.5316 Q=   -0.8200 A=    0.0000 R=    0.0000 C=    0.0000
 XYZ=    9.0073    5.9182    4.6345 Q=    0.4100 A=    0.0000 R=    0.0000 C=    0.0000
 XYZ=    7.6535    6.3239    3.8164 Q=    0.4100 A=    0.0000 R=    0.0000 C=    0.0000
 XYZ=    7.5818    6.1207   -5.7884 Q=   -0.8200 A=    0.0000 R=    0.0000 C=    0.0000
 XYZ=    7.9554    5.5549   -5.0533 Q=    0.4100 A=    0.0000 R=    0.0000 C=    0.0000
 XYZ=    7.7405    5.6721   -6.6679 Q=    0.4100 A=    0.0000 R=    0.0000 C=    0.0000
 XYZ=   -2.0557    5.4629    9.7233 Q=   -0.8200 A=    0.0000 R=    0.0000 C=    0.0000
 XYZ=   -2.5224    6.3187    9.5000 Q=    0.4100 A=    0.0000 R=    0.0000 C=    0.0000
 XYZ=   -1.7295    5.0319    8.8820 Q=    0.4100 A=    0.0000 R=    0.0000 C=    0.0000
 XYZ=    8.3369   -7.1107    1.2261 Q=   -0.8200 A=    0.0000 R=    0.0000 C=    0.0000
 XYZ=    8.8585   -6.3046    0.9465 Q=    0.4100 A=    0.0000 R=    0.0000 C=    0.0000
 XYZ=    7.5084   -6.8216    1.7057 Q=    0.4100 A=    0.0000 R=    0.0000 C=    0.0000
 XYZ=   10.3222    3.4471    1.3436 Q=   -0.8200 A=    0.0000 R=    0.0000 C=    0.0000
 XYZ=    9.5189    3.7334    1.8658 Q=    0.4100 A=    0.0000 R=    0.0000 C=    0.0000
 XYZ=   10.8522    4.2528    1.0788 Q=    0.4100 A=    0.0000 R=    0.0000 C=    0.0000
 XYZ=    5.0417    5.1498    8.7577 Q=   -0.8200 A=    0.0000 R=    0.0000 C=    0.0000
 XYZ=    5.7741    5.6425    9.2275 Q=    0.4100 A=    0.0000 R=    0.0000 C=    0.0000
 XYZ=    5.2305    5.1287    7.7759 Q=    0.4100 A=    0.0000 R=    0.0000 C=    0.0000
 XYZ=   10.2302    1.1694   -4.1791 Q=   -0.8200 A=    0.0000 R=    0.0000 C=    0.0000
 XYZ=   10.4048    1.9152   -3.5362 Q=    0.4100 A=    0.0000 R=    0.0000 C=    0.0000
 XYZ=   10.5229    0.3037   -3.7727 Q=    0.4100 A=    0.0000 R=    0.0000 C=    0.0000
 XYZ=   -7.2744   -8.4544    1.2234 Q=   -0.8200 A=    0.0000 R=    0.0000 C=    0.0000
 XYZ=   -7.6413   -7.5253    1.2703 Q=    0.4100 A=    0.0000 R=    0.0000 C=    0.0000
 XYZ=   -7.0232   -8.7604    2.1417 Q=    0.4100 A=    0.0000 R=    0.0000 C=    0.0000
 XYZ=   -6.7695    8.2323    3.2136 Q=   -0.8200 A=    0.0000 R=    0.0000 C=    0.0000
 XYZ=   -6.9290    7.2586    3.0507 Q=    0.4100 A=    0.0000 R=    0.0000 C=    0.0000
 XYZ=   -6.9214    8.4377    4.1805 Q=    0.4100 A=    0.0000 R=    0.0000 C=    0.0000
 XYZ=   -2.7192   -0.4260  -11.3123 Q=   -0.8200 A=    0.0000 R=    0.0000 C=    0.0000
 XYZ=   -2.2296   -0.8983  -10.5792 Q=    0.4100 A=    0.0000 R=    0.0000 C=    0.0000
 XYZ=   -3.6985   -0.6122  -11.2329 Q=    0.4100 A=    0.0000 R=    0.0000 C=    0.0000
 XYZ=    0.9290    9.5122    7.1805 Q=   -0.8200 A=    0.0000 R=    0.0000 C=    0.0000
 XYZ=    0.9190    9.2484    6.2160 Q=    0.4100 A=    0.0000 R=    0.0000 C=    0.0000
 XYZ=    1.8379    9.3445    7.5625 Q=    0.4100 A=    0.0000 R=    0.0000 C=    0.0000
 XYZ=   -2.0727  -10.9035   -0.0660 Q=   -0.8200 A=    0.0000 R=    0.0000 C=    0.0000
 XYZ=   -1.5016  -11.6468    0.2824 Q=    0.4100 A=    0.0000 R=    0.0000 C=    0.0000
 XYZ=   -2.5629  -11.2136   -0.8807 Q=    0.4100 A=    0.0000 R=    0.0000 C=    0.0000
 XYZ=   -9.9809    1.9623   -1.7810 Q=   -0.8200 A=    0.0000 R=    0.0000 C=    0.0000
 XYZ=  -10.9470    1.8514   -1.5478 Q=    0.4100 A=    0.0000 R=    0.0000 C=    0.0000
 XYZ=   -9.6353    2.8086   -1.3754 Q=    0.4100 A=    0.0000 R=    0.0000 C=    0.0000
 XYZ=    7.0581   -0.1004    7.9903 Q=   -0.8200 A=    0.0000 R=    0.0000 C=    0.0000
 XYZ=    6.4195    0.6541    7.8383 Q=    0.4100 A=    0.0000 R=    0.0000 C=    0.0000
 XYZ=    7.9330    0.2629    8.3106 Q=    0.4100 A=    0.0000 R=    0.0000 C=    0.0000
 XYZ=    1.1876    4.3720    9.7643 Q=   -0.8200 A=    0.0000 R=    0.0000 C=    0.0000
 XYZ=    0.5445    4.5627   10.5060 Q=    0.4100 A=    0.0000 R=    0.0000 C=    0.0000
 XYZ=    1.4935    3.4218    9.8245 Q=    0.4100 A=    0.0000 R=    0.0000 C=    0.0000
 XYZ=   -5.4900   -0.9821   -8.8454 Q=   -0.8200 A=    0.0000 R=    0.0000 C=    0.0000
 XYZ=   -6.1370   -1.7124   -8.6262 Q=    0.4100 A=    0.0000 R=    0.0000 C=    0.0000
 XYZ=   -5.1767   -1.0865   -9.7893 Q=    0.4100 A=    0.0000 R=    0.0000 C=    0.0000
 XYZ=    2.1631   -6.2261  -10.2821 Q=   -0.8200 A=    0.0000 R=    0.0000 C=    0.0000
 XYZ=    1.9318   -6.9371   -9.6180 Q=    0.4100 A=    0.0000 R=    0.0000 C=    0.0000
 XYZ=    3.1367   -6.0084  -10.2118 Q=    0.4100 A=    0.0000 R=    0.0000 C=    0.0000
 XYZ=   -1.5450  -10.1993   -7.0783 Q=   -0.8200 A=    0.0000 R=    0.0000 C=    0.0000
 XYZ=   -1.9369   -9.2845   -6.9802 Q=    0.4100 A=    0.0000 R=    0.0000 C=    0.0000
 XYZ=   -1.6327  -10.4993   -8.0283 Q=    0.4100 A=    0.0000 R=    0.0000 C=    0.0000
 XYZ=   -1.9740    9.7978   -4.9953 Q=   -0.8200 A=    0.0000 R=    0.0000 C=    0.0000
 XYZ=   -2.2596   10.7561   -4.9918 Q=    0.4100 A=    0.0000 R=    0.0000 C=    0.0000
 XYZ=   -2.5596    9.2732   -4.3772 Q=    0.4100 A=    0.0000 R=    0.0000 C=    0.0000
 XYZ=   -0.6936   -3.5126    9.9418 Q=   -0.8200 A=    0.0000 R=    0.0000 C=    0.0000
 XYZ=   -0.2019   -4.1687    9.3692 Q=    0.4100 A=    0.0000 R=    0.0000 C=    0.0000
 XYZ=   -1.4649   -3.9694   10.3849 Q=    0.4100 A=    0.0000 R=    0.0000 C=    0.0000
 XYZ=    9.6166   -2.3355   -6.9287 Q=   -0.8200 A=    0.0000 R=    0.0000 C=    0.0000
 XYZ=    8.8726   -2.2015   -7.5833 Q=    0.4100 A=    0.0000 R=    0.0000 C=    0.0000
 XYZ=    9.3312   -2.0076   -6.0281 Q=    0.4100 A=    0.0000 R=    0.0000 C=    0.0000
 XYZ=   -1.6479   -6.3634    8.3308 Q=   -0.8200 A=    0.0000 R=    0.0000 C=    0.0000
 XYZ=   -0.8834   -5.7199    8.3711 Q=    0.4100 A=    0.0000 R=    0.0000 C=    0.0000
 XYZ=   -2.5075   -5.8678    8.4551 Q=    0.4100 A=    0.0000 R=    0.0000 C=    0.0000
 XYZ=   -8.7123   -6.2751    3.4440 Q=   -0.8200 A=    0.0000 R=    0.0000 C=    0.0000
 XYZ=   -8.5039   -6.1032    2.4811 Q=    0.4100 A=    0.0000 R=    0.0000 C=    0.0000
 XYZ=   -9.3201   -7.0658    3.5175 Q=    0.4100 A=    0.0000 R=    0.0000 C=    0.0000
 XYZ=   -6.5329   -8.9507    3.4092 Q=   -0.8200 A=    0.0000 R=    0.0000 C=    0.0000
 XYZ=   -6.1711   -8.1262    3.8443 Q=    0.4100 A=    0.0000 R=    0.0000 C=    0.0000
 XYZ=   -5.8272   -9.6592    3.3991 Q=    0.4100 A=    0.0000 R=    0.0000 C=    0.0000
 XYZ=   -0.8286  -11.5151   -5.2459 Q=   -0.8200 A=    0.0000 R=    0.0000 C=    0.0000
 XYZ=   -0.3718  -10.8766   -4.6265 Q=    0.4100 A=    0.0000 R=    0.0000 C=    0.0000
 XYZ=   -1.1526  -11.0219   -6.0533 Q=    0.4100 A=    0.0000 R=    0.0000 C=    0.0000
 XYZ=   -4.4538   -8.1734    6.3914 Q=   -0.8200 A=    0.0000 R=    0.0000 C=    0.0000
 XYZ=   -4.8200   -7.8293    5.5268 Q=    0.4100 A=    0.0000 R=    0.0000 C=    0.0000
 XYZ=   -4.9081   -7.7115    7.1531 Q=    0.4100 A=    0.0000 R=    0.0000 C=    0.0000
 XYZ=    4.6317    2.6671    9.2743 Q=   -0.8200 A=    0.0000 R=    0.0000 C=    0.0000
 XYZ=    5.2813    2.5163   10.0196 Q=    0.4100 A=    0.0000 R=    0.0000 C=    0.0000
 XYZ=    4.5767    3.6451    9.0730 Q=    0.4100 A=    0.0000 R=    0.0000 C=    0.0000
 XYZ=    1.1053    3.1748  -11.1213 Q=   -0.8200 A=    0.0000 R=    0.0000 C=    0.0000
 XYZ=    0.8068    3.5442  -10.2413 Q=    0.4100 A=    0.0000 R=    0.0000 C=    0.0000
 XYZ=    2.0309    3.4964  -11.3210 Q=    0.4100 A=    0.0000 R=    0.0000 C=    0.0000
 XYZ=   -3.6376    6.9895    8.8734 Q=   -0.8200 A=    0.0000 R=    0.0000 C=    0.0000
 XYZ=   -3.7664    6.5445    7.9872 Q=    0.4100 A=    0.0000 R=    0.0000 C=    0.0000
 XYZ=   -4.5262    7.1201    9.3130 Q=    0.4100 A=    0.0000 R=    0.0000 C=    0.0000
 XYZ=   11.5154    1.2636    1.3882 Q=   -0.8200 A=    0.0000 R=    0.0000 C=    0.0000
 XYZ=   10.7922    0.6557    1.7161 Q=    0.4100 A=    0.0000 R=    0.0000 C=    0.0000
 XYZ=   11.2327    2.2148    1.5119 Q=    0.4100 A=    0.0000 R=    0.0000 C=    0.0000
 XYZ=  -10.3864    2.9966    2.6652 Q=   -0.8200 A=    0.0000 R=    0.0000 C=    0.0000
 XYZ=  -11.2100    3.1953    2.1339 Q=    0.4100 A=    0.0000 R=    0.0000 C=    0.0000
 XYZ=  -10.3162    2.0103    2.8148 Q=    0.4100 A=    0.0000 R=    0.0000 C=    0.0000
 XYZ=   -2.7840    2.0967  -10.7899 Q=   -0.8200 A=    0.0000 R=    0.0000 C=    0.0000
 XYZ=   -2.9360    2.2230   -9.8096 Q=    0.4100 A=    0.0000 R=    0.0000 C=    0.0000
 XYZ=   -2.6412    1.1259  -10.9827 Q=    0.4100 A=    0.0000 R=    0.0000 C=    0.0000
 XYZ=   -5.4460  -10.4398   -2.2230 Q=   -0.8200 A=    0.0000 R=    0.0000 C=    0.0000
 XYZ=   -6.1067  -11.1475   -2.4735 Q=    0.4100 A=    0.0000 R=    0.0000 C=    0.0000
 XYZ=   -5.4378   -9.7280   -2.9254 Q=    0.4100 A=    0.0000 R=    0.0000 C=    0.0000
 XYZ=   -4.7255   10.1876   -0.2628 Q=   -0.8200 A=    0.0000 R=    0.0000 C=    0.0000
 XYZ=   -5.1512   10.8715   -0.8553 Q=    0.4100 A=    0.0000 R=    0.0000 C=    0.0000
 XYZ=   -5.4141    9.5231    0.0276 Q=    0.4100 A=    0.0000 R=    0.0000 C=    0.0000
 XYZ=   -9.2894    2.1885   -4.0340 Q=   -0.8200 A=    0.0000 R=    0.0000 C=    0.0000
 XYZ=   -9.5626    2.1246   -3.0742 Q=    0.4100 A=    0.0000 R=    0.0000 C=    0.0000
 XYZ=  -10.0291    1.8481   -4.6145 Q=    0.4100 A=    0.0000 R=    0.0000 C=    0.0000
 XYZ=    8.9017   -6.3850   -4.5152 Q=   -0.8200 A=    0.0000 R=    0.0000 C=    0.0000
 XYZ=    8.8907   -5.9933   -5.4353 Q=    0.4100 A=    0.0000 R=    0.0000 C=    0.0000
 XYZ=    9.2275   -7.3295   -4.5590 Q=    0.4100 A=    0.0000 R=    0.0000 C=    0.0000
 XYZ=   -3.6064   10.7253    1.7874 Q=   -0.8200 A=    0.0000 R=    0.0000 C=    0.0000
 XYZ=   -4.3008   10.6929    2.5064 Q=    0.4100 A=    0.0000 R=    0.0000 C=    0.0000
 XYZ=   -4.0198   10.4712    0.9131 Q=    0.4100 A=    0.0000 R=    0.0000 C=    0.0000
 XYZ=   -6.3792    8.7856    0.7499 Q=   -0.8200 A=    0.0000 R=    0.0000 C=    0.0000
 XYZ=   -6.9650    9.4525    0.2894 Q=    0.4100 A=    0.0000 R=    0.0000 C=    0.0000
 XYZ=   -6.7921    8.5261    1.6230 Q=    0.4100 A=    0.0000 R=    0.0000 C=    0.0000
 XYZ=   -6.7921    6.5715    5.9699 Q=   -0.8200 A=    0.0000 R=    0.0000 C=    0.0000
 XYZ=   -6.9963    7.5213    5.7329 Q=    0.4100 A=    0.0000 R=    0.0000 C=    0.0000
 XYZ=   -6.9504    6.4304    6.9471 Q=    0.4100 A=    0.0000 R=    0.0000 C=    0.0000
 XYZ=   -5.0533   -7.7715   -8.3893 Q=   -0.8200 A=    0.0000 R=    0.0000 C=    0.0000
 XYZ=   -4.3128   -8.3023   -8.8014 Q=    0.4100 A=    0.0000 R=    0.0000 C=    0.0000
 XYZ=   -4.8975   -7.6906   -7.4048 Q=    0.4100 A=    0.0000 R=    0.0000 C=    0.0000
 XYZ=   -2.7767   -5.7194  -11.0163 Q=   -0.8200 A=    0.0000 R=    0.0000 C=    0.0000
 XYZ=   -2.9807   -5.5777  -11.9850 Q=    0.4100 A=    0.0000 R=    0.0000 C=    0.0000
 XYZ=   -2.1833   -4.9837  -10.6896 Q=    0.4100 A=    0.0000 R=    0.0000 C=    0.0000
 XYZ=   -0.7209   12.4333   -0.7376 Q=   -0.8200 A=    0.0000 R=    0.0000 C=    0.0000
 XYZ=   -0.1234   11.6341   -0.6720 Q=    0.4100 A=    0.0000 R=    0.0000 C=    0.0000
 XYZ=   -1.3429   12.4495    0.0453 Q=    0.4100 A=    0.0000 R=    0.0000 C=    0.0000
 XYZ=   -4.2148    4.0656   10.4196 Q=   -0.8200 A=    0.0000 R=    0.0000 C=    0.0000
 XYZ=   -3.3416    4.5237   10.2531 Q=    0.4100 A=    0.0000 R=    0.0000 C=    0.0000
 XYZ=   -4.7062    3.9605    9.5550 Q=    0.4100 A=    0.0000 R=    0.0000 C=    0.0000
 XYZ=   -0.5337    0.0538  -12.3872 Q=   -0.8200 A=    0.0000 R=    0.0000 C=    0.0000
 XYZ=    0.0098   -0.2296  -11.5970 Q=    0.4100 A=    0.0000 R=    0.0000 C=    0.0000
 XYZ=   -1.5061   -0.0444  -12.1753 Q=    0.4100 A=    0.0000 R=    0.0000 C=    0.0000
 XYZ=    2.8663   12.0981    2.3281 Q=   -0.8200 A=    0.0000 R=    0.0000 C=    0.0000
 XYZ=    2.0485   11.5228    2.3421 Q=    0.4100 A=    0.0000 R=    0.0000 C=    0.0000
 XYZ=    2.5986   13.0595    2.3923 Q=    0.4100 A=    0.0000 R=    0.0000 C=    0.0000
 XYZ=    3.2646    5.2946   10.3538 Q=   -0.8200 A=    0.0000 R=    0.0000 C=    0.0000
 XYZ=    2.4537    4.8838    9.9369 Q=    0.4100 A=    0.0000 R=    0.0000 C=    0.0000
 XYZ=    4.0046    5.3269    9.6819 Q=    0.4100 A=    0.0000 R=    0.0000 C=    0.0000
 XYZ=   -3.7337   -5.5498    8.6786 Q=   -0.8200 A=    0.0000 R=    0.0000 C=    0.0000
 XYZ=   -4.3606   -6.3270    8.6243 Q=    0.4100 A=    0.0000 R=    0.0000 C=    0.0000
 XYZ=   -3.4228   -5.4377    9.6224 Q=    0.4100 A=    0.0000 R=    0.0000 C=    0.0000
 XYZ=   -6.3687    3.1507   -7.9585 Q=   -0.8200 A=    0.0000 R=    0.0000 C=    0.0000
 XYZ=   -5.8382    3.7151   -8.5911 Q=    0.4100 A=    0.0000 R=    0.0000 C=    0.0000
 XYZ=   -6.0626    2.2008   -8.0225 Q=    0.4100 A=    0.0000 R=    0.0000 C=    0.0000
 XYZ=    8.7656   -8.4716   -0.7248 Q=   -0.8200 A=    0.0000 R=    0.0000 C=    0.0000
 XYZ=    8.4579   -7.9652    0.0808 Q=    0.4100 A=    0.0000 R=    0.0000 C=    0.0000
 XYZ=    9.0888   -9.3761   -0.4465 Q=    0.4100 A=    0.0000 R=    0.0000 C=    0.0000
 XYZ=    6.2084   -5.2443   -9.4517 Q=   -0.8200 A=    0.0000 R=    0.0000 C=    0.0000
 XYZ=    6.4897   -6.0281  -10.0055 Q=    0.4100 A=    0.0000 R=    0.0000 C=    0.0000
 XYZ=    6.3604   -4.4007   -9.9667 Q=    0.4100 A=    0.0000 R=    0.0000 C=    0.0000
 XYZ=    9.6787    4.6530    4.9797 Q=   -0.8200 A=    0.0000 R=    0.0000 C=    0.0000
 XYZ=    9.5185    3.7051    4.7042 Q=    0.4100 A=    0.0000 R=    0.0000 C=    0.0000
 XYZ=    9.6463    4.7202    5.9770 Q=    0.4100 A=    0.0000 R=    0.0000 C=    0.0000
 XYZ=   12.3981   -0.9365   -1.2720 Q=   -0.8200 A=    0.0000 R=    0.0000 C=    0.0000
 XYZ=   13.1482   -1.3222   -0.7347 Q=    0.4100 A=    0.0000 R=    0.0000 C=    0.0000
 XYZ=   11.5391   -1.0465   -0.7720 Q=    0.4100 A=    0.0000 R=    0.0000 C=    0.0000
 XYZ=   10.4412   -5.9280   -2.3345 Q=   -0.8200 A=    0.0000 R=    0.0000 C=    0.0000
 XYZ=   10.0304   -5.5509   -3.1647 Q=    0.4100 A=    0.0000 R=    0.0000 C=    0.0000
 XYZ=   10.5093   -6.9222   -2.4183 Q=    0.4100 A=    0.0000 R=    0.0000 C=    0.0000
 XYZ=  -11.6443   -0.6110   -1.6357 Q=   -0.8200 A=    0.0000 R=    0.0000 C=    0.0000
 XYZ=  -12.1608    0.2395   -1.7351 Q=    0.4100 A=    0.0000 R=    0.0000 C=    0.0000
 XYZ=  -10.6810   -0.3987   -1.4714 Q=    0.4100 A=    0.0000 R=    0.0000 C=    0.0000
 XYZ=   -1.4165   -7.6784  -10.7850 Q=   -0.8200 A=    0.0000 R=    0.0000 C=    0.0000
 XYZ=   -2.0196   -6.8833  -10.8501 Q=    0.4100 A=    0.0000 R=    0.0000 C=    0.0000
 XYZ=   -0.8279   -7.5853   -9.9820 Q=    0.4100 A=    0.0000 R=    0.0000 C=    0.0000
 XYZ=   10.0247    7.3658   -2.3505 Q=   -0.8200 A=    0.0000 R=    0.0000 C=    0.0000
 XYZ=   10.0296    7.6489   -3.3095 Q=    0.4100 A=    0.0000 R=    0.0000 C=    0.0000
 XYZ=    9.0853    7.1793   -2.0629 Q=    0.4100 A=    0.0000 R=    0.0000 C=    0.0000
 XYZ=   -3.4880  -11.7192   -1.6947 Q=   -0.8200 A=    0.0000 R=    0.0000 C=    0.0000
 XYZ=   -3.0309  -12.0047   -2.5370 Q=    0.4100 A=    0.0000 R=    0.0000 C=    0.0000
 XYZ=   -4.2024  -11.0541   -1.9121 Q=    0.4100 A=    0.0000 R=    0.0000 C=    0.0000
 XYZ=   -0.7836    5.5405  -10.8702 Q=   -0.8200 A=    0.0000 R=    0.0000 C=    0.0000
 XYZ=   -1.2109    4.8120  -11.4057 Q=    0.4100 A=    0.0000 R=    0.0000 C=    0.0000
 XYZ=   -0.3495    5.1474  -10.0596 Q=    0.4100 A=    0.0000 R=    0.0000 C=    0.0000
 XYZ=   -5.0880    9.7998   -4.9579 Q=   -0.8200 A=    0.0000 R=    0.0000 C=    0.0000
 XYZ=   -4.5274    9.1476   -4.4477 Q=    0.4100 A=    0.0000 R=    0.0000 C=    0.0000
 XYZ=   -4.5062   10.3253   -5.5786 Q=    0.4100 A=    0.0000 R=    0.0000 C=    0.0000
 XYZ=    6.2355   10.2478    4.6134 Q=   -0.8200 A=    0.0000 R=    0.0000 C=    0.0000
 XYZ=    5.6069    9.5369    4.9288 Q=    0.4100 A=    0.0000 R=    0.0000 C=    0.0000
 XYZ=    5.7632   10.8476    3.9674 Q=    0.4100 A=    0.0000 R=    0.0000 C=    0.0000
 XYZ=    8.8481   -5.6508   -6.6361 Q=   -0.8200 A=    0.0000 R=    0.0000 C=    0.0000
 XYZ=    9.6913   -5.1195   -6.7184 Q=    0.4100 A=    0.0000 R=    0.0000 C=    0.0000
 XYZ=    8.8253   -6.3523   -7.3484 Q=    0.4100 A=    0.0000 R=    0.0000 C=    0.0000
 XYZ=    3.9040   -0.5403  -11.9302 Q=   -0.8200 A=    0.0000 R=    0.0000 C=    0.0000
 XYZ=    3.5134    0.2391  -11.4404 Q=    0.4100 A=    0.0000 R=    0.0000 C=    0.0000
 XYZ=    4.3955   -1.1265  -11.2861 Q=    0.4100 A=    0.0000 R=    0.0000 C=    0.0000
 XYZ=  -10.3720    4.3697    4.6360 Q=   -0.8200 A=    0.0000 R=    0.0000 C=    0.0000
 XYZ=  -10.3272    3.8083    3.8096 Q=    0.4100 A=    0.0000 R=    0.0000 C=    0.0000
 XYZ=   -9.4459    4.6134    4.9240 Q=    0.4100 A=    0.0000 R=    0.0000 C=    0.0000
 XYZ=    7.5690    6.3713    6.8319 Q=   -0.8200 A=    0.0000 R=    0.0000 C=    0.0000
 XYZ=    7.7871    6.7635    5.9383 Q=    0.4100 A=    0.0000 R=    0.0000 C=    0.0000
 XYZ=    7.7404    7.0511    7.5450 Q=    0.4100 A=    0.0000 R=    0.0000 C=    0.0000
 XYZ=   -5.1247  -10.5992    3.6866 Q=   -0.8200 A=    0.0000 R=    0.0000 C=    0.0000
 XYZ=   -5.5336  -11.5116    3.6683 Q=    0.4100 A=    0.0000 R=    0.0000 C=    0.0000
 XYZ=   -4.2720  -10.6056    3.1642 Q=    0.4100 A=    0.0000 R=    0.0000 C=    0.0000
 XYZ=   -8.7942    4.1202   -5.4329 Q=   -0.8200 A=    0.0000 R=    0.0000 C=    0.0000
 XYZ=   -7.8083    4.2580   -5.5286 Q=    0.4100 A=    0.0000 R=    0.0000 C=    0.0000
 XYZ=   -8.9648    3.3369   -4.8351 Q=    0.4100 A=    0.0000 R=    0.0000 C=    0.0000
 XYZ=   -6.7977    0.9115    9.5367 Q=   -0.8200 A=    0.0000 R=    0.0000 C=    0.0000
 XYZ=   -7.4848    0.2996    9.1449 Q=    0.4100 A=    0.0000 R=    0.0000 C=    0.0000
 XYZ=   -6.1743    0.3857   10.1155 Q=    0.4100 A=    0.0000 R=    0.0000 C=    0.0000
 XYZ=   -0.5469    2.1255   11.2890 Q=   -0.8200 A=    0.0000 R=    0.0000 C=    0.0000
 XYZ=    0.3736    1.9567   11.6417 Q=    0.4100 A=    0.0000 R=    0.0000 C=    0.0000
 XYZ=   -0.7132    3.1108   11.2498 Q=    0.4100 A=    0.0000 R=    0.0000 C=    0.0000
 XYZ=    2.7290   11.9028    0.0885 Q=   -0.8200 A=    0.0000 R=    0.0000 C=    0.0000
 XYZ=    2.9276   11.9353    1.0680 Q=    0.4100 A=    0.0000 R=    0.0000 C=    0.0000
 XYZ=    3.5867   11.8655   -0.4244 Q=    0.4100 A=    0.0000 R=    0.0000 C=    0.0000
 XYZ=   11.2885   -3.8435    0.9804 Q=   -0.8200 A=    0.0000 R=    0.0000 C=    0.0000
 XYZ=   10.4408   -4.2611    1.3077 Q=    0.4100 A=    0.0000 R=    0.0000 C=    0.0000
 XYZ=   11.6442   -4.3718    0.2094 Q=    0.4100 A=    0.0000 R=    0.0000 C=    0.0000
 XYZ=   -4.4620    9.8720    5.3987 Q=   -0.8200 A=    0.0000 R=    0.0000 C=    0.0000
 XYZ=   -4.8674   10.6434    5.8894 Q=    0.4100 A=    0.0000 R=    0.0000 C=    0.0000
 XYZ=   -4.6722    9.9495    4.4241 Q=    0.4100 A=    0.0000 R=    0.0000 C=    0.0000
 XYZ=   -5.3185   10.3521    3.3293 Q=   -0.8200 A=    0.0000 R=    0.0000 C=    0.0000
 XYZ=   -5.8886    9.5307    3.3089 Q=    0.4100 A=    0.0000 R=    0.0000 C=    0.0000
 XYZ=   -5.9030   11.1626    3.3678 Q=    0.4100 A=    0.0000 R=    0.0000 C=    0.0000
 XYZ=    8.1067    8.8774    3.5937 Q=   -0.8200 A=    0.0000 R=    0.0000 C=    0.0000
 XYZ=    8.1160    7.9936    4.0616 Q=    0.4100 A=    0.0000 R=    0.0000 C=    0.0000
 XYZ=    7.4066    9.4634    4.0018 Q=    0.4100 A=    0.0000 R=    0.0000 C=    0.0000
 XYZ=    0.2237   -2.1883   11.7830 Q=   -0.8200 A=    0.0000 R=    0.0000 C=    0.0000
 XYZ=   -0.0102   -2.7327   10.9774 Q=    0.4100 A=    0.0000 R=    0.0000 C=    0.0000
 XYZ=   -0.6081   -1.7879   12.1676 Q=    0.4100 A=    0.0000 R=    0.0000 C=    0.0000
 XYZ=  -11.9634   -2.0481    1.6267 Q=   -0.8200 A=    0.0000 R=    0.0000 C=    0.0000
 XYZ=  -11.1096   -1.5724    1.4153 Q=    0.4100 A=    0.0000 R=    0.0000 C=    0.0000
 XYZ=  -11.7673   -2.8497    2.1915 Q=    0.4100 A=    0.0000 R=    0.0000 C=    0.0000
 XYZ=   -4.8469   -5.6920   -9.6991 Q=   -0.8200 A=    0.0000 R=    0.0000 C=    0.0000
 XYZ=   -4.0012   -5.7527  -10.2293 Q=    0.4100 A=    0.0000 R=    0.0000 C=    0.0000
 XYZ=   -5.0621   -6.5883   -9.3112 Q=    0.4100 A=    0.0000 R=    0.0000 C=    0.0000
 XYZ=   11.4140    4.7234   -3.4540 Q=   -0.8200 A=    0.0000 R=    0.0000 C=    0.0000
 XYZ=   11.6290    5.2631   -2.6400 Q=    0.4100 A=    0.0000 R=    0.0000 C=    0.0000
 XYZ=   11.2228    3.7789   -3.1866 Q=    0.4100 A=    0.0000 R=    0.0000 C=    0.0000
 XYZ=    7.6666    9.4164    1.2772 Q=   -0.8200 A=    0.0000 R=    0.0000 C=    0.0000
 XYZ=    7.8982    9.2486    2.2354 Q=    0.4100 A=    0.0000 R=    0.0000 C=    0.0000
 XYZ=    7.0977   10.2361    1.2104 Q=    0.4100 A=    0.0000 R=    0.0000 C=    0.0000
[...]
    39  O    0.000000   0.000000  -0.044760   0.000141   0.062756   0.000000
    40  H    0.000000   0.000000   0.000351   0.000004  -0.002476   0.000000
    41  H    0.000000   0.000000   0.003665  -0.000072   0.002229   0.000000
    42  O    0.000000   0.000000   0.000000   0.000000   0.000000   0.000000
    43  H    0.000000   0.000000   0.000000   0.000000   0.000000   0.000000
    44  H    0.000000   0.000000   0.000000   0.000000   0.000000   0.000000
    45  O    0.000000   0.000000   0.000323   0.000073   0.000120   0.000000
    46  H    0.000000   0.000000   0.000001   0.000000   0.000000   0.000000
    47  H    0.000000   0.000000  -0.000004   0.000000   0.000000   0.000000
    48  O   -0.000001  -0.000001   0.000000   0.000000   0.000000   0.000000
    49  H    0.000000   0.000000   0.000000   0.000000   0.000000   0.000000
    50  H    0.000000   0.000000   0.000000   0.000000   0.000000   0.000000
              31         32         33         34         35         36
     1  C    0.001945  -0.001812   0.000731  -0.000305   0.000063  -0.002099
     2  H    0.000000   0.000000  -0.000001  -0.000001   0.000000   0.000022
     3  H   -0.000002  -0.000001   0.000000   0.000000   0.000000   0.000001
     4  C   -0.002737   0.002936  -0.000499  -0.000015  -0.000022   0.001466
     5  H   -0.000028  -0.000047   0.000000   0.000000   0.000000   0.000000
     6  C    0.000316  -0.000527  -0.000021   0.000202  -0.000016  -0.000091
     7  H    0.000000  -0.000006   0.000000   0.000000   0.000000   0.000000
     8  O   -0.000001  -0.000016   0.000001  -0.000010   0.000000  -0.000747
     9  O    0.000000  -0.000001   0.000001   0.000000   0.000000  -0.000004
    10  H    0.000000   0.000000   0.000000   0.000000   0.000000   0.000000
    11  H    0.000000   0.000000   0.000000   0.000000   0.000000   0.000000
    12  O    0.000000  -0.000001  -0.012909   0.013566   0.000382  -0.133842
    13  H    0.000000  -0.000001   0.003923   0.005530  -0.000054   0.005537
    14  H    0.000000   0.000000   0.001010   0.000820   0.000010   0.002061
    15  O    0.000000   0.000000   0.000000   0.000000   0.000000  -0.000008
    16  H    0.000000   0.000000   0.000000   0.000000   0.000000   0.000000
    17  H    0.000000   0.000000   0.000000   0.000000   0.000000   0.000000
    18  O   -0.000002   0.000111  -0.049561   0.042453   0.001999   0.000037
    19  H    0.000000   0.000000  -0.002313  -0.004579  -0.000337  -0.000263
    20  H   -0.000001  -0.000004   0.000983   0.000168   0.000014  -0.000364
    21  O    0.002035   0.032689   0.000023   0.000009   0.000000  -0.000001
    22  H   -0.000044  -0.001568   0.000000   0.000000   0.000000   0.000000
    23  H   -0.000002   0.001639  -0.000002   0.000000   0.000000   0.000000
    24  O    0.001117   0.002204  -0.002702   0.000143  -0.000236  -0.000004
    25  H   -0.000025  -0.000041   0.000017  -0.000002   0.000005  -0.000001
    26  H   -0.000362   0.000237   0.000045  -0.000045  -0.000002   0.000001
    27  O   -0.000001   0.000001   0.000000   0.000000   0.000000   0.000000
    28  H    0.000000   0.000001   0.000000   0.000000   0.000000   0.000000
    29  H    0.000000   0.000000   0.000000   0.000000   0.000000   0.000000
    30  O    0.213780   0.190902   0.000073  -0.000044  -0.000002   0.000000
    31  H    0.180516  -0.006783   0.000000   0.000000   0.000000   0.000000
    32  H   -0.006783   0.160834  -0.000004  -0.000001   0.000000   0.000000
    33  O    0.000000  -0.000004   8.874596   0.144777   0.220157  -0.000869
    34  H    0.000000  -0.000001   0.144777   0.252137  -0.007928  -0.000671
    35  H    0.000000   0.000000   0.220157  -0.007928   0.196714  -0.000008
    36  O    0.000000   0.000000  -0.000869  -0.000671  -0.000008   9.133050
    37  H    0.000000   0.000000  -0.000013   0.000003   0.000000   0.164456
    38  H    0.000000   0.000000   0.000170  -0.000273   0.000000   0.153378
    39  O    0.000000   0.000000   0.000000   0.000000   0.000000   0.000000
    40  H    0.000000   0.000000   0.000000   0.000000   0.000000   0.000000
    41  H    0.000000   0.000000   0.000000   0.000000   0.000000   0.000000
    42  O    0.000000   0.000000   0.000000   0.000000   0.000000   0.000003
    43  H    0.000000   0.000000   0.000000   0.000000   0.000000   0.000000
    44  H    0.000000   0.000000   0.000000   0.000000   0.000000   0.000000
    45  O    0.000000   0.000000   0.000000   0.000000   0.000000  -0.000003
    46  H    0.000000   0.000000   0.000000   0.000000   0.000000   0.000000
    47  H    0.000000   0.000000   0.000000   0.000000   0.000000   0.000000
    48  O    0.000000   0.000000  -0.000104  -0.000001   0.000000  -0.064050
    49  H    0.000000   0.000000  -0.000012  -0.000002   0.000000  -0.000992
    50  H    0.000000   0.000000   0.000000   0.000000   0.000000   0.000586
              37         38         39         40         41         42
     1  C    0.000146   0.000446  -0.000122  -0.000022  -0.000090  -0.000010
     2  H   -0.000002   0.000021   0.000000   0.000000   0.000000   0.000000
     3  H    0.000000  -0.000001   0.000000   0.000000   0.000000   0.000000
     4  C   -0.000141  -0.000311  -0.010534  -0.000050   0.000881   0.001132
     5  H    0.000000   0.000000   0.000002   0.000000  -0.000001   0.000000
     6  C    0.000054   0.000485  -0.000261  -0.000091   0.000701  -0.001022
     7  H    0.000000   0.000000   0.000040  -0.000021  -0.001670   0.000003
     8  O    0.000013  -0.000344  -0.000641  -0.000007   0.000991  -0.000707
     9  O    0.000000  -0.000004  -0.083982  -0.001030   0.069914   0.000022
    10  H    0.000000   0.000000   0.003889   0.000019  -0.000411  -0.000005
    11  H    0.000000   0.000000   0.007160  -0.000411  -0.001965   0.000006
    12  O    0.006886  -0.007546  -0.000001   0.000000   0.000000  -0.000004
    13  H   -0.000681  -0.000644   0.000000   0.000000   0.000000   0.000000
    14  H    0.000086   0.001180   0.000000   0.000000   0.000000   0.000000
    15  O    0.000000  -0.000001  -0.000084   0.000003  -0.000015  -0.086852
    16  H    0.000000   0.000000  -0.000023   0.000005  -0.000008   0.002680
    17  H    0.000000   0.000000   0.000015   0.000001   0.000001   0.001315
    18  O    0.001546   0.005153   0.000000   0.000000   0.000000   0.000000
    19  H   -0.000187   0.000058   0.000000   0.000000   0.000000   0.000000
    20  H    0.000013  -0.000230   0.000000   0.000000   0.000000   0.000000
    21  O    0.000000   0.000000  -0.000003   0.000000  -0.000002   0.000000
    22  H    0.000000   0.000000   0.000000   0.000000   0.000000   0.000000
    23  H    0.000000   0.000000  -0.000006   0.000000  -0.000004   0.000000
    24  O    0.000007  -0.000009   0.000000   0.000000   0.000000   0.000000
    25  H    0.000000   0.000000   0.000000   0.000000   0.000000   0.000000
    26  H    0.000000   0.000000   0.000000   0.000000   0.000000   0.000000
    27  O    0.000000   0.000000  -0.044760   0.000351   0.003665   0.000000
    28  H    0.000000   0.000000   0.000141   0.000004  -0.000072   0.000000
    29  H    0.000000   0.000000   0.062756  -0.002476   0.002229   0.000000
    30  O    0.000000   0.000000   0.000000   0.000000   0.000000   0.000000
    31  H    0.000000   0.000000   0.000000   0.000000   0.000000   0.000000
    32  H    0.000000   0.000000   0.000000   0.000000   0.000000   0.000000
    33  O   -0.000013   0.000170   0.000000   0.000000   0.000000   0.000000
    34  H    0.000003  -0.000273   0.000000   0.000000   0.000000   0.000000
    35  H    0.000000   0.000000   0.000000   0.000000   0.000000   0.000000
    36  O    0.164456   0.153378   0.000000   0.000000   0.000000   0.000003
    37  H    0.253126   0.001383   0.000000   0.000000   0.000000   0.000000
    38  H    0.001383   0.230525   0.000000   0.000000   0.000000   0.000000
    39  O    0.000000   0.000000   8.924645   0.222827   0.138570  -0.000001
    40  H    0.000000   0.000000   0.222827   0.175998  -0.008713   0.000000
    41  H    0.000000   0.000000   0.138570  -0.008713   0.182187   0.000000
    42  O    0.000000   0.000000  -0.000001   0.000000   0.000000   8.913196
    43  H    0.000000   0.000000   0.000000   0.000000   0.000000   0.172536
    44  H    0.000000   0.000000   0.000000   0.000000   0.000000   0.218793
    45  O    0.000000  -0.000001  -0.002864   0.000103   0.004472  -0.000192
    46  H    0.000000   0.000000   0.000083  -0.000001  -0.000032   0.000000
    47  H    0.000000   0.000000  -0.000224  -0.000001  -0.000049  -0.000014
    48  O   -0.025228   0.003172   0.000000   0.000000   0.000000   0.000000
    49  H    0.000549  -0.000028   0.000000   0.000000   0.000000   0.000000
    50  H    0.000903  -0.000164   0.000000   0.000000   0.000000   0.000000
              43         44         45         46         47         48
     1  C    0.000019   0.000001   0.000242   0.000017   0.000050  -0.000679
     2  H    0.000000   0.000000   0.000001   0.000000   0.000000  -0.000018
     3  H    0.000000   0.000000   0.000000   0.000000   0.000000  -0.000002
     4  C    0.000114  -0.000027   0.003810   0.000028  -0.000294   0.000203
     5  H    0.000000   0.000000   0.000000   0.000000   0.000000   0.000000
     6  C    0.000258   0.000038  -0.002558  -0.000124  -0.000288   0.000097
     7  H    0.000001   0.000000   0.000450   0.000002  -0.000027   0.000000
     8  O   -0.000165   0.000012   0.001419   0.000005   0.000965  -0.000010
     9  O    0.000060   0.000000  -0.113729   0.001815  -0.000109   0.000000
    10  H    0.000000   0.000000   0.004006  -0.000094  -0.000141   0.000000
    11  H   -0.000001   0.000000   0.002972   0.002006   0.000737   0.000000
    12  O   -0.000002   0.000000  -0.000295   0.000004   0.000008  -0.005060
    13  H    0.000000   0.000000   0.000001   0.000000   0.000000   0.000519
    14  H    0.000000   0.000000   0.000043  -0.000001  -0.000002   0.000075
    15  O    0.010702  -0.000165  -0.001273  -0.000006   0.003621   0.000000
    16  H    0.001292   0.000066  -0.000203   0.000001  -0.000043   0.000000
    17  H   -0.000529  -0.000230   0.000023   0.000000  -0.000040   0.000000
    18  O    0.000000   0.000000  -0.000005   0.000000   0.000000   0.004364
    19  H    0.000000   0.000000   0.000000   0.000000   0.000000  -0.000186
    20  H    0.000000   0.000000   0.000000   0.000000   0.000000  -0.000012
    21  O    0.000000   0.000000   0.000027   0.000000   0.000000   0.000000
    22  H    0.000000   0.000000   0.000000   0.000000   0.000000   0.000000
    23  H    0.000000   0.000000   0.000004   0.000000   0.000000   0.000000
    24  O    0.000000   0.000000   0.000000   0.000000   0.000000   0.000062
    25  H    0.000000   0.000000   0.000000   0.000000   0.000000  -0.000001
    26  H    0.000000   0.000000   0.000000   0.000000   0.000000  -0.000001
    27  O    0.000000   0.000000   0.000323   0.000001  -0.000004   0.000000
    28  H    0.000000   0.000000   0.000073   0.000000   0.000000   0.000000
    29  H    0.000000   0.000000   0.000120   0.000000   0.000000   0.000000
    30  O    0.000000   0.000000   0.000000   0.000000   0.000000   0.000000
    31  H    0.000000   0.000000   0.000000   0.000000   0.000000   0.000000
    32  H    0.000000   0.000000   0.000000   0.000000   0.000000   0.000000
    33  O    0.000000   0.000000   0.000000   0.000000   0.000000  -0.000104
    34  H    0.000000   0.000000   0.000000   0.000000   0.000000  -0.000001
    35  H    0.000000   0.000000   0.000000   0.000000   0.000000   0.000000
    36  O    0.000000   0.000000  -0.000003   0.000000   0.000000  -0.064050
    37  H    0.000000   0.000000   0.000000   0.000000   0.000000  -0.025228
    38  H    0.000000   0.000000  -0.000001   0.000000   0.000000   0.003172
    39  O    0.000000   0.000000  -0.002864   0.000083  -0.000224   0.000000
    40  H    0.000000   0.000000   0.000103  -0.000001  -0.000001   0.000000
    41  H    0.000000   0.000000   0.004472  -0.000032  -0.000049   0.000000
    42  O    0.172536   0.218793  -0.000192   0.000000  -0.000014   0.000000
    43  H    0.237135  -0.005727  -0.000012   0.000000  -0.000009   0.000000
    44  H   -0.005727   0.186633   0.000000   0.000000   0.000001   0.000000
    45  O   -0.000012   0.000000   8.915553   0.198737   0.205377   0.000000
    46  H    0.000000   0.000000   0.198737   0.152101  -0.004579   0.000000
    47  H   -0.000009   0.000001   0.205377  -0.004579   0.191042   0.000000
    48  O    0.000000   0.000000   0.000000   0.000000   0.000000   8.838908
    49  H    0.000000   0.000000   0.000000   0.000000   0.000000   0.219470
    50  H    0.000000   0.000000   0.000000   0.000000   0.000000   0.209660
              49         50
     1  C    0.000028  -0.000010
     2  H    0.000000   0.000000
     3  H    0.000000   0.000000
     4  C   -0.000078   0.000039
     5  H    0.000000   0.000000
     6  C    0.000011  -0.000008
     7  H    0.000000   0.000000
     8  O    0.000000   0.000000
     9  O    0.000000   0.000000
    10  H    0.000000   0.000000
    11  H    0.000000   0.000000
    12  O    0.000116   0.000040
    13  H   -0.000054  -0.000006
    14  H   -0.000001   0.000000
    15  O    0.000000   0.000000
    16  H    0.000000   0.000000
    17  H    0.000000   0.000000
    18  O    0.001393  -0.000193
    19  H   -0.000194  -0.000004
    20  H   -0.000021  -0.000002
    21  O    0.000000   0.000000
    22  H    0.000000   0.000000
    23  H    0.000000   0.000000
    24  O   -0.000019  -0.000001
    25  H    0.000000   0.000000
    26  H    0.000000   0.000000
    27  O    0.000000   0.000000
    28  H    0.000000   0.000000
    29  H    0.000000   0.000000
    30  O    0.000000   0.000000
    31  H    0.000000   0.000000
    32  H    0.000000   0.000000
    33  O   -0.000012   0.000000
    34  H   -0.000002   0.000000
    35  H    0.000000   0.000000
    36  O   -0.000992   0.000586
    37  H    0.000549   0.000903
    38  H   -0.000028  -0.000164
    39  O    0.000000   0.000000
    40  H    0.000000   0.000000
    41  H    0.000000   0.000000
    42  O    0.000000   0.000000
    43  H    0.000000   0.000000
    44  H    0.000000   0.000000
    45  O    0.000000   0.000000
    46  H    0.000000   0.000000
    47  H    0.000000   0.000000
    48  O    0.219470   0.209660
    49  H    0.218414  -0.008115
    50  H   -0.008115   0.169973
 Mulliken charges:
               1
     1  C   -0.448127
     2  H    0.264485
     3  H    0.241829
     4  C   -0.026944
     5  H    0.218245
     6  C   -0.041682
     7  H    0.111266
     8  O   -0.318031
     9  O   -1.129595
    10  H    0.436149
    11  H    0.647456
    12  O   -1.104485
    13  H    0.598187
    14  H    0.488012
    15  O   -1.160659
    16  H    0.527410
    17  H    0.684847
    18  O   -1.207644
    19  H    0.650560
    20  H    0.610434
    21  O   -1.108712
    22  H    0.627102
    23  H    0.522413
    24  O   -1.188212
    25  H    0.593731
    26  H    0.601637
    27  O   -1.076864
    28  H    0.484895
    29  H    0.571054
    30  O   -1.241670
    31  H    0.610277
    32  H    0.619258
    33  O   -1.177499
    34  H    0.554071
    35  H    0.589259
    36  O   -1.256581
    37  H    0.597078
    38  H    0.613584
    39  O   -1.216621
    40  H    0.613511
    41  H    0.609421
    42  O   -1.220879
    43  H    0.584328
    44  H    0.600604
    45  O   -1.216620
    46  H    0.650039
    47  H    0.604024
    48  O   -1.181178
    49  H    0.569536
    50  H    0.627299
 Sum of Mulliken charges =   0.00000
 Mulliken charges with hydrogens summed into heavy atoms:
               1
     1  C    0.058187
     4  C    0.191301
     6  C    0.069584
     8  O   -0.318031
     9  O   -0.045989
    12  O   -0.018286
    15  O    0.051598
    18  O    0.053349
    21  O    0.040803
    24  O    0.007156
    27  O   -0.020914
    30  O   -0.012134
    33  O   -0.034168
    36  O   -0.045918
    39  O    0.006311
    42  O   -0.035947
    45  O    0.037443
    48  O    0.015657
 Electronic spatial extent (au):  <R**2>=          11470.5105
 Charge=              0.0000 electrons
 Dipole moment (field-independent basis, Debye):
    X=             -4.0499    Y=             -7.9300    Z=             -8.7059  Tot=             12.4531
 Quadrupole moment (field-independent basis, Debye-Ang):
   XX=            -99.2925   YY=           -143.3998   ZZ=           -114.4264
   XY=             72.0164   XZ=             37.2414   YZ=             11.8316
 Traceless Quadrupole moment (field-independent basis, Debye-Ang):
   XX=             19.7471   YY=            -24.3602   ZZ=              4.6132
   XY=             72.0164   XZ=             37.2414   YZ=             11.8316
 Octapole moment (field-independent basis, Debye-Ang**2):
  XXX=           -493.9708  YYY=           -246.8758  ZZZ=             -2.8655  XYY=            113.2183
  XXY=            203.8961  XXZ=           -210.5394  XZZ=             21.6294  YZZ=             -4.6307
  YYZ=              0.0190  XYZ=             98.0982
 Hexadecapole moment (field-independent basis, Debye-Ang**3):
 XXXX=          -5870.2708 YYYY=          -4647.7642 ZZZZ=          -1473.7904 XXXY=           2050.8551
 XXXZ=            194.4781 YYYX=            829.6643 YYYZ=            426.2390 ZZZX=            447.0620
 ZZZY=            221.9629 XXYY=          -2286.1105 XXZZ=          -1515.8506 YYZZ=          -1061.5427
 XXYZ=           -332.1278 YYXZ=            446.6037 ZZXY=             64.3661
 N-N= 1.120918956686D+03 E-N=-6.207855073333D+03  KE= 1.249174082037D+03
 Leave Link  601 at Fri Sep 14 18:27:53 2018, MaxMem=    33554432 cpu:         2.1
 (Enter /usr/local/pacerepov1/gaussian/G09D01LINDA/g09/l9999.exe)

 Test job not archived.
 1\1\GINC-RICH133-B13-29-R\SP\RLC-wPBE TD-FC\6-31+G(d)\C3H32O15\ROOT\14
 -Sep-2018\0\\#p td=(nstates=15)/6-31+g(d) lc-wpbe charge\\Acroleina in
  Water\\0,1\C,0,0.485154,0.480443,-1.430142\H,0,1.461403,0.187773,-1.0
 55732\H,0,0.429244,0.878853,-2.437062\C,0,-0.605127,0.346563,-0.658432
 \H,0,-1.591686,0.632893,-1.012412\C,0,-0.508516,-0.199107,0.712798\H,0
 ,-1.458487,-0.272107,1.272438\O,0,0.544883,-0.561317,1.236519\O,0,-1.1
 97885,-0.602509,3.454121\H,0,-0.991585,-0.181799,2.570691\H,0,-0.34554
 5,-0.777869,3.946881\O,0,3.084485,1.863581,1.261851\H,0,2.899925,2.623
 161,0.638121\H,0,2.914025,2.156091,2.202811\O,0,0.853935,-3.491069,2.2
 03131\H,0,0.214575,-3.104899,1.538201\H,0,0.553135,-4.409439,2.460221\
 O,0,2.711675,3.576681,-0.349589\H,0,3.347195,4.191501,-0.816619\H,0,1.
 895465,3.450031,-0.913349\O,0,-2.395895,3.180141,1.038571\H,0,-3.38989
 5,3.289761,1.044671\H,0,-2.110425,2.682741,1.857801\O,0,0.462505,3.805
 361,-1.505519\H,0,0.703865,4.373201,-2.292489\H,0,-0.512275,3.907771,-
 1.307089\O,0,-4.392775,-0.323639,2.607771\H,0,-3.671345,0.023361,2.008
 451\H,0,-3.982935,-0.852209,3.351211\O,0,-1.978975,4.210171,-0.963699\
 H,0,-2.849355,3.982931,-1.400559\H,0,-1.972955,3.855931,-0.028559\O,0,
 2.937495,5.194251,1.470361\H,0,2.708845,4.398711,0.909231\H,0,2.943765
 ,6.014691,0.898611\O,0,5.267225,1.380641,0.637231\H,0,5.452125,1.64737
 1,-0.308649\H,0,4.290215,1.479321,0.826401\O,0,-2.972185,-1.586249,4.5
 70042\H,0,-2.691075,-2.545239,4.533482\H,0,-2.262635,-1.014999,4.15745
 2\O,0,2.804205,-4.641739,1.554441\H,0,1.955455,-4.163709,1.780661\H,0,
 3.128835,-5.142299,2.356981\O,0,0.569415,-0.922229,4.877721\H,0,1.0723
 45,-0.465089,5.611281\H,0,1.184545,-1.538149,4.385501\O,0,5.822435,1.8
 99211,-1.673099\H,0,5.550885,2.797671,-2.018229\H,0,5.702745,1.215471,
 -2.393029\\Version=EM64L-G09RevD.01\State=1-A\HF=-1759.0532396\RMSD=3.
 096e-09\PG=C01 [X(C3H32O15)]\\@


      SCIENCE SANS CONSCIENCE N'EST QUE RUINE DE L'AME.

                                                  -- RABELAIS
 Job cpu time:       0 days  3 hours 57 minutes 13.4 seconds.
 File lengths (MBytes):  RWF=    792 Int=      0 D2E=      0 Chk=     96 Scr=      2
 Normal termination of Gaussian 09 at Fri Sep 14 18:27:54 2018.
