 Entering Gaussian System, Link 0=g09
 Input=Acroleina_water_15_85c.gjf
 Output=Acroleina_water_15_85c.log
 Initial command:
 /usr/local/pacerepov1/gaussian/G09D01LINDA/g09/l1.exe /nv/hp18/holiveira7/scratch/22412025/Gau-28423.inp -scrdir=/nv/hp18/holiveira7/scratch/22412025/
 Entering Link 1 = /usr/local/pacerepov1/gaussian/G09D01LINDA/g09/l1.exe PID=     28424.
  
 Copyright (c) 1988,1990,1992,1993,1995,1998,2003,2009,2013,
            Gaussian, Inc.  All Rights Reserved.
  
 This is part of the Gaussian(R) 09 program.  It is based on
 the Gaussian(R) 03 system (copyright 2003, Gaussian, Inc.),
 the Gaussian(R) 98 system (copyright 1998, Gaussian, Inc.),
 the Gaussian(R) 94 system (copyright 1995, Gaussian, Inc.),
 the Gaussian 92(TM) system (copyright 1992, Gaussian, Inc.),
 the Gaussian 90(TM) system (copyright 1990, Gaussian, Inc.),
 the Gaussian 88(TM) system (copyright 1988, Gaussian, Inc.),
 the Gaussian 86(TM) system (copyright 1986, Carnegie Mellon
 University), and the Gaussian 82(TM) system (copyright 1983,
 Carnegie Mellon University). Gaussian is a federally registered
 trademark of Gaussian, Inc.
  
 This software contains proprietary and confidential information,
 including trade secrets, belonging to Gaussian, Inc.
  
 This software is provided under written license and may be
 used, copied, transmitted, or stored only in accord with that
 written license.
  
 The following legend is applicable only to US Government
 contracts under FAR:
  
                    RESTRICTED RIGHTS LEGEND
  
 Use, reproduction and disclosure by the US Government is
 subject to restrictions as set forth in subparagraphs (a)
 and (c) of the Commercial Computer Software - Restricted
 Rights clause in FAR 52.227-19.
  
 Gaussian, Inc.
 340 Quinnipiac St., Bldg. 40, Wallingford CT 06492
  
  
 ---------------------------------------------------------------
 Warning -- This program may not be used in any manner that
 competes with the business of Gaussian, Inc. or will provide
 assistance to any competitor of Gaussian, Inc.  The licensee
 of this program is prohibited from giving any competitor of
 Gaussian, Inc. access to this program.  By using this program,
 the user acknowledges that Gaussian, Inc. is engaged in the
 business of creating and licensing software in the field of
 computational chemistry and represents and warrants to the
 licensee that it is not a competitor of Gaussian, Inc. and that
 it will not use this program in any manner prohibited above.
 ---------------------------------------------------------------
  

 Cite this work as:
 Gaussian 09, Revision D.01,
 M. J. Frisch, G. W. Trucks, H. B. Schlegel, G. E. Scuseria, 
 M. A. Robb, J. R. Cheeseman, G. Scalmani, V. Barone, B. Mennucci, 
 G. A. Petersson, H. Nakatsuji, M. Caricato, X. Li, H. P. Hratchian, 
 A. F. Izmaylov, J. Bloino, G. Zheng, J. L. Sonnenberg, M. Hada, 
 M. Ehara, K. Toyota, R. Fukuda, J. Hasegawa, M. Ishida, T. Nakajima, 
 Y. Honda, O. Kitao, H. Nakai, T. Vreven, J. A. Montgomery, Jr., 
 J. E. Peralta, F. Ogliaro, M. Bearpark, J. J. Heyd, E. Brothers, 
 K. N. Kudin, V. N. Staroverov, T. Keith, R. Kobayashi, J. Normand, 
 K. Raghavachari, A. Rendell, J. C. Burant, S. S. Iyengar, J. Tomasi, 
 M. Cossi, N. Rega, J. M. Millam, M. Klene, J. E. Knox, J. B. Cross, 
 V. Bakken, C. Adamo, J. Jaramillo, R. Gomperts, R. E. Stratmann, 
 O. Yazyev, A. J. Austin, R. Cammi, C. Pomelli, J. W. Ochterski, 
 R. L. Martin, K. Morokuma, V. G. Zakrzewski, G. A. Voth, 
 P. Salvador, J. J. Dannenberg, S. Dapprich, A. D. Daniels, 
 O. Farkas, J. B. Foresman, J. V. Ortiz, J. Cioslowski, 
 and D. J. Fox, Gaussian, Inc., Wallingford CT, 2013.
 
 ******************************************
 Gaussian 09:  EM64L-G09RevD.01 24-Apr-2013
                14-Sep-2018 
 ******************************************
 %chk=Acrolina_Din_85.chk
 %nprocshared=10
 Will use up to   10 processors via shared memory.
 -------------------------------------------
 #p td=(nstates=15)/6-31+g(d) lc-wpbe charge
 -------------------------------------------
 1/18=10,28=-2,38=1,125=101/1;
 2/12=2,17=6,18=5,40=1/2;
 3/5=1,6=6,7=11,11=9,16=1,25=1,30=1,74=-41/1,2,8,3;
 4//1;
 5/5=2,38=5/2;
 8/6=1,10=2,108=15/1;
 9/41=15,42=1,70=2/14;
 6/7=2,8=2,9=2,10=2/1;
 99/5=1,9=1/99;
 Leave Link    1 at Fri Sep 14 17:41:22 2018, MaxMem=           0 cpu:         1.2
 (Enter /usr/local/pacerepov1/gaussian/G09D01LINDA/g09/l101.exe)
 ------------------
 Acroleina in Water
 ------------------
 Symbolic Z-matrix:
 Charge =  0 Multiplicity = 1
 C                     0.48515   0.48044  -1.43014 
 H                     1.4614    0.18777  -1.05573 
 H                     0.42924   0.87885  -2.43706 
 C                    -0.60513   0.34656  -0.65843 
 H                    -1.59169   0.63289  -1.01241 
 C                    -0.50852  -0.19911   0.7128 
 H                    -1.45849  -0.27211   1.27244 
 O                     0.54488  -0.56132   1.23652 
 O                     0.07022  -0.20972   2.93852 
 H                     0.40103  -0.34155   2.00408 
 H                     0.8236   -0.34815   3.58141 
 O                     2.30551  -3.1331    1.38733 
 H                     1.89309  -2.30005   1.01856 
 H                     1.5914   -3.7133    1.77897 
 O                     1.21344   4.22364  -1.77438 
 H                     1.27411   4.62354  -2.68893 
 H                     0.25218   4.10157  -1.52711 
 O                    -1.36308   4.77846  -1.55339 
 H                    -2.16397   4.44046  -2.04771 
 H                    -1.629     5.036    -0.62444 
 O                    -1.98639  -0.94111   3.31004 
 H                    -1.8659   -1.91147   3.5196 
 H                    -1.09065  -0.50929   3.20419 
 O                     3.63302  -1.96563   2.85923 
 H                     4.45283  -1.59969   2.41872 
 H                     3.10598  -2.49554   2.19479 
 O                    -3.52164   0.17004   1.94811 
 H                    -3.15387   1.04922   1.64508 
 H                    -2.81975  -0.32669   2.45867 
 O                     1.89061  -0.76661   4.1458 
 H                     2.31473  -0.10346   4.76258 
 H                     2.59611  -1.19582   3.58182 
 O                    -1.87636   5.57516   1.02266 
 H                    -2.76413   5.12563   0.92315 
 H                    -1.59396   5.54661   1.98155 
 O                    -3.41933   4.05912  -2.53194 
 H                    -3.72462   4.88792  -2.06301 
 H                    -4.0974    3.33518  -2.40465 
 O                    -0.85375   6.21463  -3.14723 
 H                    -1.05296   5.53126  -2.44482 
 H                    -0.55202   7.06251  -2.71125 
 O                     3.92826  -4.66247   0.60475 
 H                     3.25841  -3.92972   0.725 
 H                     3.93943  -5.24092   1.4204 
 O                     4.20208   1.83802  -1.00634 
 H                     3.7299    2.7192   -0.98119 
 H                     3.53176   1.09879  -0.94129 
 O                    -4.05552   4.53959   0.62617 
 H                    -4.44566   5.2426    0.03154 
 H                    -4.34614   4.70188   1.56916 
 
 NAtoms=     50 NQM=       50 NQMF=       0 NMMI=      0 NMMIF=      0
                NMic=       0 NMicF=      0.
                    Isotopes and Nuclear Properties:
 (Nuclear quadrupole moments (NQMom) in fm**2, nuclear magnetic moments (NMagM)
  in nuclear magnetons)

  Atom         1           2           3           4           5           6           7           8           9          10
 IAtWgt=          12           1           1          12           1          12           1          16          16           1
 AtmWgt=  12.0000000   1.0078250   1.0078250  12.0000000   1.0078250  12.0000000   1.0078250  15.9949146  15.9949146   1.0078250
 NucSpn=           0           1           1           0           1           0           1           0           0           1
 AtZEff=   0.0000000   0.0000000   0.0000000   0.0000000   0.0000000   0.0000000   0.0000000   0.0000000   0.0000000   0.0000000
 NQMom=    0.0000000   0.0000000   0.0000000   0.0000000   0.0000000   0.0000000   0.0000000   0.0000000   0.0000000   0.0000000
 NMagM=    0.0000000   2.7928460   2.7928460   0.0000000   2.7928460   0.0000000   2.7928460   0.0000000   0.0000000   2.7928460
 AtZNuc=   6.0000000   1.0000000   1.0000000   6.0000000   1.0000000   6.0000000   1.0000000   8.0000000   8.0000000   1.0000000

  Atom        11          12          13          14          15          16          17          18          19          20
 IAtWgt=           1          16           1           1          16           1           1          16           1           1
 AtmWgt=   1.0078250  15.9949146   1.0078250   1.0078250  15.9949146   1.0078250   1.0078250  15.9949146   1.0078250   1.0078250
 NucSpn=           1           0           1           1           0           1           1           0           1           1
 AtZEff=   0.0000000   0.0000000   0.0000000   0.0000000   0.0000000   0.0000000   0.0000000   0.0000000   0.0000000   0.0000000
 NQMom=    0.0000000   0.0000000   0.0000000   0.0000000   0.0000000   0.0000000   0.0000000   0.0000000   0.0000000   0.0000000
 NMagM=    2.7928460   0.0000000   2.7928460   2.7928460   0.0000000   2.7928460   2.7928460   0.0000000   2.7928460   2.7928460
 AtZNuc=   1.0000000   8.0000000   1.0000000   1.0000000   8.0000000   1.0000000   1.0000000   8.0000000   1.0000000   1.0000000

  Atom        21          22          23          24          25          26          27          28          29          30
 IAtWgt=          16           1           1          16           1           1          16           1           1          16
 AtmWgt=  15.9949146   1.0078250   1.0078250  15.9949146   1.0078250   1.0078250  15.9949146   1.0078250   1.0078250  15.9949146
 NucSpn=           0           1           1           0           1           1           0           1           1           0
 AtZEff=   0.0000000   0.0000000   0.0000000   0.0000000   0.0000000   0.0000000   0.0000000   0.0000000   0.0000000   0.0000000
 NQMom=    0.0000000   0.0000000   0.0000000   0.0000000   0.0000000   0.0000000   0.0000000   0.0000000   0.0000000   0.0000000
 NMagM=    0.0000000   2.7928460   2.7928460   0.0000000   2.7928460   2.7928460   0.0000000   2.7928460   2.7928460   0.0000000
 AtZNuc=   8.0000000   1.0000000   1.0000000   8.0000000   1.0000000   1.0000000   8.0000000   1.0000000   1.0000000   8.0000000

  Atom        31          32          33          34          35          36          37          38          39          40
 IAtWgt=           1           1          16           1           1          16           1           1          16           1
 AtmWgt=   1.0078250   1.0078250  15.9949146   1.0078250   1.0078250  15.9949146   1.0078250   1.0078250  15.9949146   1.0078250
 NucSpn=           1           1           0           1           1           0           1           1           0           1
 AtZEff=   0.0000000   0.0000000   0.0000000   0.0000000   0.0000000   0.0000000   0.0000000   0.0000000   0.0000000   0.0000000
 NQMom=    0.0000000   0.0000000   0.0000000   0.0000000   0.0000000   0.0000000   0.0000000   0.0000000   0.0000000   0.0000000
 NMagM=    2.7928460   2.7928460   0.0000000   2.7928460   2.7928460   0.0000000   2.7928460   2.7928460   0.0000000   2.7928460
 AtZNuc=   1.0000000   1.0000000   8.0000000   1.0000000   1.0000000   8.0000000   1.0000000   1.0000000   8.0000000   1.0000000

  Atom        41          42          43          44          45          46          47          48          49          50
 IAtWgt=           1          16           1           1          16           1           1          16           1           1
 AtmWgt=   1.0078250  15.9949146   1.0078250   1.0078250  15.9949146   1.0078250   1.0078250  15.9949146   1.0078250   1.0078250
 NucSpn=           1           0           1           1           0           1           1           0           1           1
 AtZEff=   0.0000000   0.0000000   0.0000000   0.0000000   0.0000000   0.0000000   0.0000000   0.0000000   0.0000000   0.0000000
 NQMom=    0.0000000   0.0000000   0.0000000   0.0000000   0.0000000   0.0000000   0.0000000   0.0000000   0.0000000   0.0000000
 NMagM=    2.7928460   0.0000000   2.7928460   2.7928460   0.0000000   2.7928460   2.7928460   0.0000000   2.7928460   2.7928460
 AtZNuc=   1.0000000   8.0000000   1.0000000   1.0000000   8.0000000   1.0000000   1.0000000   8.0000000   1.0000000   1.0000000
 Background charge distribution read from input stream:
 Point Charges:
 XYZ=    3.4474    4.0091   -1.1352 Q=   -0.8200 A=    0.0000 R=    0.0000 C=    0.0000
 XYZ=    3.9613    4.5685   -1.7855 Q=    0.4100 A=    0.0000 R=    0.0000 C=    0.0000
 XYZ=    2.4716    4.0631   -1.3473 Q=    0.4100 A=    0.0000 R=    0.0000 C=    0.0000
 XYZ=    0.8831   -2.6272    4.9780 Q=   -0.8200 A=    0.0000 R=    0.0000 C=    0.0000
 XYZ=    1.4722   -1.9183    4.5900 Q=    0.4100 A=    0.0000 R=    0.0000 C=    0.0000
 XYZ=    0.0571   -2.7157    4.4211 Q=    0.4100 A=    0.0000 R=    0.0000 C=    0.0000
 XYZ=   -5.5746    2.9188    0.1074 Q=   -0.8200 A=    0.0000 R=    0.0000 C=    0.0000
 XYZ=   -4.8141    3.4938    0.4093 Q=    0.4100 A=    0.0000 R=    0.0000 C=    0.0000
 XYZ=   -5.5515    2.8317   -0.8886 Q=    0.4100 A=    0.0000 R=    0.0000 C=    0.0000
 XYZ=   -4.7208   -1.4803    0.7127 Q=   -0.8200 A=    0.0000 R=    0.0000 C=    0.0000
 XYZ=   -4.0670   -0.8912    1.1876 Q=    0.4100 A=    0.0000 R=    0.0000 C=    0.0000
 XYZ=   -4.6073   -2.4236    1.0248 Q=    0.4100 A=    0.0000 R=    0.0000 C=    0.0000
 XYZ=   -0.4774    7.3278    0.2805 Q=   -0.8200 A=    0.0000 R=    0.0000 C=    0.0000
 XYZ=   -0.6552    8.1754    0.7805 Q=    0.4100 A=    0.0000 R=    0.0000 C=    0.0000
 XYZ=   -1.0772    6.6056    0.6251 Q=    0.4100 A=    0.0000 R=    0.0000 C=    0.0000
 XYZ=    1.0452   -4.9188    2.4396 Q=   -0.8200 A=    0.0000 R=    0.0000 C=    0.0000
 XYZ=    0.8155   -5.4140    1.6017 Q=    0.4100 A=    0.0000 R=    0.0000 C=    0.0000
 XYZ=    1.5198   -5.5329    3.0701 Q=    0.4100 A=    0.0000 R=    0.0000 C=    0.0000
 XYZ=   -1.4416   -2.9801    4.0559 Q=   -0.8200 A=    0.0000 R=    0.0000 C=    0.0000
 XYZ=   -1.8438   -2.8677    4.9645 Q=    0.4100 A=    0.0000 R=    0.0000 C=    0.0000
 XYZ=   -1.5350   -3.9325    3.7656 Q=    0.4100 A=    0.0000 R=    0.0000 C=    0.0000
 XYZ=   -1.2168   -5.1669    3.2383 Q=   -0.8200 A=    0.0000 R=    0.0000 C=    0.0000
 XYZ=   -0.3294   -4.9389    2.8375 Q=    0.4100 A=    0.0000 R=    0.0000 C=    0.0000
 XYZ=   -1.1176   -5.9619    3.8369 Q=    0.4100 A=    0.0000 R=    0.0000 C=    0.0000
 XYZ=   -5.7672   -1.4951   -1.4273 Q=   -0.8200 A=    0.0000 R=    0.0000 C=    0.0000
 XYZ=   -5.2455   -1.2629   -0.6064 Q=    0.4100 A=    0.0000 R=    0.0000 C=    0.0000
 XYZ=   -6.0771   -2.4441   -1.3679 Q=    0.4100 A=    0.0000 R=    0.0000 C=    0.0000
 XYZ=    0.2659   -6.2922    0.6679 Q=   -0.8200 A=    0.0000 R=    0.0000 C=    0.0000
 XYZ=    0.8601   -6.6029   -0.0740 Q=    0.4100 A=    0.0000 R=    0.0000 C=    0.0000
 XYZ=   -0.6392   -6.0761    0.3016 Q=    0.4100 A=    0.0000 R=    0.0000 C=    0.0000
 XYZ=   -3.1446    4.2757   -4.8626 Q=   -0.8200 A=    0.0000 R=    0.0000 C=    0.0000
 XYZ=   -3.2092    4.0600   -3.8882 Q=    0.4100 A=    0.0000 R=    0.0000 C=    0.0000
 XYZ=   -3.8826    3.8149   -5.3556 Q=    0.4100 A=    0.0000 R=    0.0000 C=    0.0000
 XYZ=    4.1526    5.4506    0.7843 Q=   -0.8200 A=    0.0000 R=    0.0000 C=    0.0000
 XYZ=    3.7539    4.6139    0.4088 Q=    0.4100 A=    0.0000 R=    0.0000 C=    0.0000
 XYZ=    3.8726    6.2324    0.2270 Q=    0.4100 A=    0.0000 R=    0.0000 C=    0.0000
 XYZ=   -5.4097    2.4903   -2.5027 Q=   -0.8200 A=    0.0000 R=    0.0000 C=    0.0000
 XYZ=   -5.7907    1.5720   -2.6108 Q=    0.4100 A=    0.0000 R=    0.0000 C=    0.0000
 XYZ=   -5.8005    3.0968   -3.1952 Q=    0.4100 A=    0.0000 R=    0.0000 C=    0.0000
 XYZ=    4.3810   -2.8317    4.9391 Q=   -0.8200 A=    0.0000 R=    0.0000 C=    0.0000
 XYZ=    3.9474   -2.7301    4.0437 Q=    0.4100 A=    0.0000 R=    0.0000 C=    0.0000
 XYZ=    4.2669   -1.9872    5.4623 Q=    0.4100 A=    0.0000 R=    0.0000 C=    0.0000
 XYZ=    1.3651    5.3189   -3.8285 Q=   -0.8200 A=    0.0000 R=    0.0000 C=    0.0000
 XYZ=    0.4156    5.6326   -3.8120 Q=    0.4100 A=    0.0000 R=    0.0000 C=    0.0000
 XYZ=    1.6797    5.2586   -4.7758 Q=    0.4100 A=    0.0000 R=    0.0000 C=    0.0000
 XYZ=   -3.0507    1.7872   -6.5405 Q=   -0.8200 A=    0.0000 R=    0.0000 C=    0.0000
 XYZ=   -2.6949    0.8735   -6.3444 Q=    0.4100 A=    0.0000 R=    0.0000 C=    0.0000
 XYZ=   -2.3054    2.4523   -6.4935 Q=    0.4100 A=    0.0000 R=    0.0000 C=    0.0000
 XYZ=   -2.2525   -6.1991   -0.2514 Q=   -0.8200 A=    0.0000 R=    0.0000 C=    0.0000
 XYZ=   -2.1085   -7.1617   -0.4810 Q=    0.4100 A=    0.0000 R=    0.0000 C=    0.0000
 XYZ=   -3.0485   -5.8535   -0.7484 Q=    0.4100 A=    0.0000 R=    0.0000 C=    0.0000
 XYZ=   -5.3103    0.9972    3.3604 Q=   -0.8200 A=    0.0000 R=    0.0000 C=    0.0000
 XYZ=   -4.5666    0.5509    2.8626 Q=    0.4100 A=    0.0000 R=    0.0000 C=    0.0000
 XYZ=   -5.7297    0.3430    3.9898 Q=    0.4100 A=    0.0000 R=    0.0000 C=    0.0000
 XYZ=   -6.2798    0.2787   -2.8989 Q=   -0.8200 A=    0.0000 R=    0.0000 C=    0.0000
 XYZ=   -6.2019    0.0190   -3.8614 Q=    0.4100 A=    0.0000 R=    0.0000 C=    0.0000
 XYZ=   -6.0960   -0.5178   -2.3228 Q=    0.4100 A=    0.0000 R=    0.0000 C=    0.0000
 XYZ=   -1.2836    3.4300   -6.1351 Q=   -0.8200 A=    0.0000 R=    0.0000 C=    0.0000
 XYZ=   -1.8042    3.9004   -5.4225 Q=    0.4100 A=    0.0000 R=    0.0000 C=    0.0000
 XYZ=   -0.8536    4.1052   -6.7345 Q=    0.4100 A=    0.0000 R=    0.0000 C=    0.0000
 XYZ=    1.7949    7.4967    1.1922 Q=   -0.8200 A=    0.0000 R=    0.0000 C=    0.0000
 XYZ=    1.6678    8.2882    1.7900 Q=    0.4100 A=    0.0000 R=    0.0000 C=    0.0000
 XYZ=    0.9235    7.2607    0.7619 Q=    0.4100 A=    0.0000 R=    0.0000 C=    0.0000
 XYZ=    5.7564   -1.3114    2.2086 Q=   -0.8200 A=    0.0000 R=    0.0000 C=    0.0000
 XYZ=    6.0527   -0.4772    2.6737 Q=    0.4100 A=    0.0000 R=    0.0000 C=    0.0000
 XYZ=    6.2166   -1.3808    1.3234 Q=    0.4100 A=    0.0000 R=    0.0000 C=    0.0000
 XYZ=   -4.8340    5.6250   -1.4754 Q=   -0.8200 A=    0.0000 R=    0.0000 C=    0.0000
 XYZ=   -4.7507    6.6185   -1.3966 Q=    0.4100 A=    0.0000 R=    0.0000 C=    0.0000
 XYZ=   -5.3302    5.3977   -2.3134 Q=    0.4100 A=    0.0000 R=    0.0000 C=    0.0000
 XYZ=    3.5352   -5.8933   -1.4279 Q=   -0.8200 A=    0.0000 R=    0.0000 C=    0.0000
 XYZ=    3.6590   -5.3661   -0.5873 Q=    0.4100 A=    0.0000 R=    0.0000 C=    0.0000
 XYZ=    4.4235   -6.0400   -1.8632 Q=    0.4100 A=    0.0000 R=    0.0000 C=    0.0000
 XYZ=   -3.0193   -5.3685    1.8585 Q=   -0.8200 A=    0.0000 R=    0.0000 C=    0.0000
 XYZ=   -2.1982   -5.2509    2.4171 Q=    0.4100 A=    0.0000 R=    0.0000 C=    0.0000
 XYZ=   -2.7635   -5.7306    0.9621 Q=    0.4100 A=    0.0000 R=    0.0000 C=    0.0000
 XYZ=   -4.5348    4.8541    2.7971 Q=   -0.8200 A=    0.0000 R=    0.0000 C=    0.0000
 XYZ=   -5.3626    5.3743    2.5871 Q=    0.4100 A=    0.0000 R=    0.0000 C=    0.0000
 XYZ=   -4.7360    4.1804    3.5082 Q=    0.4100 A=    0.0000 R=    0.0000 C=    0.0000
 XYZ=    3.2323    1.0861    5.3019 Q=   -0.8200 A=    0.0000 R=    0.0000 C=    0.0000
 XYZ=    3.7275    0.2561    5.5582 Q=    0.4100 A=    0.0000 R=    0.0000 C=    0.0000
 XYZ=    3.8791    1.7680    4.9601 Q=    0.4100 A=    0.0000 R=    0.0000 C=    0.0000
 XYZ=    1.6151   -6.9775   -1.0043 Q=   -0.8200 A=    0.0000 R=    0.0000 C=    0.0000
 XYZ=    2.4584   -6.4806   -1.2090 Q=    0.4100 A=    0.0000 R=    0.0000 C=    0.0000
 XYZ=    1.4086   -7.6066   -1.7537 Q=    0.4100 A=    0.0000 R=    0.0000 C=    0.0000
 XYZ=   -4.5677   -3.6242    1.8995 Q=   -0.8200 A=    0.0000 R=    0.0000 C=    0.0000
 XYZ=   -4.9769   -3.5481    2.8088 Q=    0.4100 A=    0.0000 R=    0.0000 C=    0.0000
 XYZ=   -3.8779   -4.3482    1.9040 Q=    0.4100 A=    0.0000 R=    0.0000 C=    0.0000
 XYZ=   -4.0453   -1.9763    4.9498 Q=   -0.8200 A=    0.0000 R=    0.0000 C=    0.0000
 XYZ=   -3.4267   -1.4935    4.3299 Q=    0.4100 A=    0.0000 R=    0.0000 C=    0.0000
 XYZ=   -3.5225   -2.3574    5.7123 Q=    0.4100 A=    0.0000 R=    0.0000 C=    0.0000
 XYZ=   -0.4838    8.1853   -1.9836 Q=   -0.8200 A=    0.0000 R=    0.0000 C=    0.0000
 XYZ=    0.3906    8.5850   -2.2590 Q=    0.4100 A=    0.0000 R=    0.0000 C=    0.0000
 XYZ=   -0.4431    7.9278   -1.0181 Q=    0.4100 A=    0.0000 R=    0.0000 C=    0.0000
 XYZ=    2.4353   -4.4093    5.8138 Q=   -0.8200 A=    0.0000 R=    0.0000 C=    0.0000
 XYZ=    3.3406   -4.0404    5.6035 Q=    0.4100 A=    0.0000 R=    0.0000 C=    0.0000
 XYZ=    1.7339   -3.7636    5.5118 Q=    0.4100 A=    0.0000 R=    0.0000 C=    0.0000
 XYZ=    2.9447    6.8203   -2.7031 Q=   -0.8200 A=    0.0000 R=    0.0000 C=    0.0000
 XYZ=    3.8492    6.5661   -3.0455 Q=    0.4100 A=    0.0000 R=    0.0000 C=    0.0000
 XYZ=    2.2579    6.2014   -3.0843 Q=    0.4100 A=    0.0000 R=    0.0000 C=    0.0000
 XYZ=    2.1227    2.3703    6.9103 Q=   -0.8200 A=    0.0000 R=    0.0000 C=    0.0000
 XYZ=    2.5895    1.8268    6.2126 Q=    0.4100 A=    0.0000 R=    0.0000 C=    0.0000
 XYZ=    1.2225    1.9752    7.0935 Q=    0.4100 A=    0.0000 R=    0.0000 C=    0.0000
 XYZ=   -5.5096   -4.3835   -0.2490 Q=   -0.8200 A=    0.0000 R=    0.0000 C=    0.0000
 XYZ=   -4.9265   -4.8875   -0.8862 Q=    0.4100 A=    0.0000 R=    0.0000 C=    0.0000
 XYZ=   -4.9995   -4.1922    0.5895 Q=    0.4100 A=    0.0000 R=    0.0000 C=    0.0000
 XYZ=   -0.0218   -1.8958    7.1872 Q=   -0.8200 A=    0.0000 R=    0.0000 C=    0.0000
 XYZ=    0.4572   -2.2469    6.3826 Q=    0.4100 A=    0.0000 R=    0.0000 C=    0.0000
 XYZ=    0.3967   -2.2711    8.0143 Q=    0.4100 A=    0.0000 R=    0.0000 C=    0.0000
 XYZ=   -6.7998    1.4898    1.7591 Q=   -0.8200 A=    0.0000 R=    0.0000 C=    0.0000
 XYZ=   -6.5028    2.2489    1.1798 Q=    0.4100 A=    0.0000 R=    0.0000 C=    0.0000
 XYZ=   -6.0978    1.2998    2.4455 Q=    0.4100 A=    0.0000 R=    0.0000 C=    0.0000
 XYZ=    6.0242   -4.8128   -0.4382 Q=   -0.8200 A=    0.0000 R=    0.0000 C=    0.0000
 XYZ=    5.0999   -4.7966   -0.0569 Q=    0.4100 A=    0.0000 R=    0.0000 C=    0.0000
 XYZ=    6.0076   -5.2575   -1.3338 Q=    0.4100 A=    0.0000 R=    0.0000 C=    0.0000
 XYZ=   -3.6519    6.1290    4.5333 Q=   -0.8200 A=    0.0000 R=    0.0000 C=    0.0000
 XYZ=   -4.4519    6.6838    4.7618 Q=    0.4100 A=    0.0000 R=    0.0000 C=    0.0000
 XYZ=   -3.8847    5.4970    3.7942 Q=    0.4100 A=    0.0000 R=    0.0000 C=    0.0000
 XYZ=    6.5021    2.0224   -1.1263 Q=   -0.8200 A=    0.0000 R=    0.0000 C=    0.0000
 XYZ=    6.9088    2.2529   -2.0103 Q=    0.4100 A=    0.0000 R=    0.0000 C=    0.0000
 XYZ=    5.5086    1.9607   -1.2224 Q=    0.4100 A=    0.0000 R=    0.0000 C=    0.0000
 XYZ=   -6.9892   -1.2229    1.2265 Q=   -0.8200 A=    0.0000 R=    0.0000 C=    0.0000
 XYZ=   -6.1242   -1.4017    0.7575 Q=    0.4100 A=    0.0000 R=    0.0000 C=    0.0000
 XYZ=   -7.0461   -0.2527    1.4621 Q=    0.4100 A=    0.0000 R=    0.0000 C=    0.0000
 XYZ=    3.6424    6.0354    2.9572 Q=   -0.8200 A=    0.0000 R=    0.0000 C=    0.0000
 XYZ=    2.9001    6.6951    2.8401 Q=    0.4100 A=    0.0000 R=    0.0000 C=    0.0000
 XYZ=    4.0017    5.7754    2.0609 Q=    0.4100 A=    0.0000 R=    0.0000 C=    0.0000
 XYZ=   -2.1046    6.7454   -5.1834 Q=   -0.8200 A=    0.0000 R=    0.0000 C=    0.0000
 XYZ=   -1.5508    6.6682   -4.3543 Q=    0.4100 A=    0.0000 R=    0.0000 C=    0.0000
 XYZ=   -2.6306    5.9047   -5.3123 Q=    0.4100 A=    0.0000 R=    0.0000 C=    0.0000
 XYZ=    6.4672   -2.9557    3.8042 Q=   -0.8200 A=    0.0000 R=    0.0000 C=    0.0000
 XYZ=    6.0772   -2.4019    3.0685 Q=    0.4100 A=    0.0000 R=    0.0000 C=    0.0000
 XYZ=    5.7630   -3.1438    4.4889 Q=    0.4100 A=    0.0000 R=    0.0000 C=    0.0000
 XYZ=   -4.2792   -5.8603   -1.8412 Q=   -0.8200 A=    0.0000 R=    0.0000 C=    0.0000
 XYZ=   -4.3869   -5.4946   -2.7657 Q=    0.4100 A=    0.0000 R=    0.0000 C=    0.0000
 XYZ=   -4.0796   -6.8389   -1.8910 Q=    0.4100 A=    0.0000 R=    0.0000 C=    0.0000
 XYZ=   -4.9052    3.2730   -6.2309 Q=   -0.8200 A=    0.0000 R=    0.0000 C=    0.0000
 XYZ=   -5.1555    3.7772   -7.0575 Q=    0.4100 A=    0.0000 R=    0.0000 C=    0.0000
 XYZ=   -4.1259    2.6777   -6.4268 Q=    0.4100 A=    0.0000 R=    0.0000 C=    0.0000
 XYZ=   -7.5764    4.6461    0.3156 Q=   -0.8200 A=    0.0000 R=    0.0000 C=    0.0000
 XYZ=   -6.8381    3.9817    0.1991 Q=    0.4100 A=    0.0000 R=    0.0000 C=    0.0000
 XYZ=   -8.2481    4.2877    0.9640 Q=    0.4100 A=    0.0000 R=    0.0000 C=    0.0000
 XYZ=    3.4933    7.3419   -0.3455 Q=   -0.8200 A=    0.0000 R=    0.0000 C=    0.0000
 XYZ=    2.7541    7.4114    0.3245 Q=    0.4100 A=    0.0000 R=    0.0000 C=    0.0000
 XYZ=    3.1136    7.0897   -1.2356 Q=    0.4100 A=    0.0000 R=    0.0000 C=    0.0000
 XYZ=    5.0934    2.3361    4.6812 Q=   -0.8200 A=    0.0000 R=    0.0000 C=    0.0000
 XYZ=    5.7285    2.2514    5.4490 Q=    0.4100 A=    0.0000 R=    0.0000 C=    0.0000
 XYZ=    4.9487    3.3035    4.4737 Q=    0.4100 A=    0.0000 R=    0.0000 C=    0.0000
 XYZ=    5.1821    4.4565    3.9546 Q=   -0.8200 A=    0.0000 R=    0.0000 C=    0.0000
 XYZ=    5.7287    4.8832    4.6752 Q=    0.4100 A=    0.0000 R=    0.0000 C=    0.0000
 XYZ=    4.5506    5.1308    3.5718 Q=    0.4100 A=    0.0000 R=    0.0000 C=    0.0000
 XYZ=    2.5567   -5.9451    4.1649 Q=   -0.8200 A=    0.0000 R=    0.0000 C=    0.0000
 XYZ=    2.0033   -6.7659    4.3068 Q=    0.4100 A=    0.0000 R=    0.0000 C=    0.0000
 XYZ=    2.4650   -5.3405    4.9562 Q=    0.4100 A=    0.0000 R=    0.0000 C=    0.0000
 XYZ=    6.3714    0.6266    3.5950 Q=   -0.8200 A=    0.0000 R=    0.0000 C=    0.0000
 XYZ=    6.5758    0.0388    4.3779 Q=    0.4100 A=    0.0000 R=    0.0000 C=    0.0000
 XYZ=    5.7556    1.3607    3.8813 Q=    0.4100 A=    0.0000 R=    0.0000 C=    0.0000
 XYZ=    6.1286    4.5438    1.8819 Q=   -0.8200 A=    0.0000 R=    0.0000 C=    0.0000
 XYZ=    5.7977    4.4653    2.8223 Q=    0.4100 A=    0.0000 R=    0.0000 C=    0.0000
 XYZ=    5.4165    4.9524    1.3110 Q=    0.4100 A=    0.0000 R=    0.0000 C=    0.0000
 XYZ=    4.0731   -6.1789    2.3430 Q=   -0.8200 A=    0.0000 R=    0.0000 C=    0.0000
 XYZ=    3.6325   -6.0767    3.2349 Q=    0.4100 A=    0.0000 R=    0.0000 C=    0.0000
 XYZ=    3.8426   -7.0725    1.9578 Q=    0.4100 A=    0.0000 R=    0.0000 C=    0.0000
 XYZ=   -5.7848    3.5987    4.5031 Q=   -0.8200 A=    0.0000 R=    0.0000 C=    0.0000
 XYZ=   -5.5316    3.3157    5.4283 Q=    0.4100 A=    0.0000 R=    0.0000 C=    0.0000
 XYZ=   -5.7453    2.8092    3.8906 Q=    0.4100 A=    0.0000 R=    0.0000 C=    0.0000
 XYZ=   -2.4321    7.9133    3.1628 Q=   -0.8200 A=    0.0000 R=    0.0000 C=    0.0000
 XYZ=   -3.0767    7.2367    3.5190 Q=    0.4100 A=    0.0000 R=    0.0000 C=    0.0000
 XYZ=   -2.7343    8.8305    3.4226 Q=    0.4100 A=    0.0000 R=    0.0000 C=    0.0000
 XYZ=    0.5458   -8.5595    1.7394 Q=   -0.8200 A=    0.0000 R=    0.0000 C=    0.0000
 XYZ=    0.4113   -7.5885    1.5421 Q=    0.4100 A=    0.0000 R=    0.0000 C=    0.0000
 XYZ=    0.9014   -9.0189    0.9255 Q=    0.4100 A=    0.0000 R=    0.0000 C=    0.0000
 XYZ=   -2.2805   -2.9198    6.1847 Q=   -0.8200 A=    0.0000 R=    0.0000 C=    0.0000
 XYZ=   -1.4697   -2.5032    6.5958 Q=    0.4100 A=    0.0000 R=    0.0000 C=    0.0000
 XYZ=   -2.5522   -3.7196    6.7201 Q=    0.4100 A=    0.0000 R=    0.0000 C=    0.0000
 XYZ=   -0.9983    7.0847    4.8746 Q=   -0.8200 A=    0.0000 R=    0.0000 C=    0.0000
 XYZ=   -1.5987    7.3285    4.1130 Q=    0.4100 A=    0.0000 R=    0.0000 C=    0.0000
 XYZ=   -1.5283    6.6124    5.5789 Q=    0.4100 A=    0.0000 R=    0.0000 C=    0.0000
 XYZ=    4.6652   -0.8115    5.9916 Q=   -0.8200 A=    0.0000 R=    0.0000 C=    0.0000
 XYZ=    4.6691   -0.7577    6.9902 Q=    0.4100 A=    0.0000 R=    0.0000 C=    0.0000
 XYZ=    5.6068   -0.8255    5.6550 Q=    0.4100 A=    0.0000 R=    0.0000 C=    0.0000
 XYZ=   -4.3753    7.9026   -1.4632 Q=   -0.8200 A=    0.0000 R=    0.0000 C=    0.0000
 XYZ=   -3.6514    8.4186   -1.9211 Q=    0.4100 A=    0.0000 R=    0.0000 C=    0.0000
 XYZ=   -5.0495    8.5375   -1.0857 Q=    0.4100 A=    0.0000 R=    0.0000 C=    0.0000
 XYZ=    2.5375    6.2907    5.8037 Q=   -0.8200 A=    0.0000 R=    0.0000 C=    0.0000
 XYZ=    3.0127    5.9482    4.9932 Q=    0.4100 A=    0.0000 R=    0.0000 C=    0.0000
 XYZ=    2.2139    5.5190    6.3513 Q=    0.4100 A=    0.0000 R=    0.0000 C=    0.0000
 XYZ=   -0.6981    4.3624    7.2485 Q=   -0.8200 A=    0.0000 R=    0.0000 C=    0.0000
 XYZ=    0.2158    4.7683    7.2340 Q=    0.4100 A=    0.0000 R=    0.0000 C=    0.0000
 XYZ=   -0.6202    3.3691    7.3337 Q=    0.4100 A=    0.0000 R=    0.0000 C=    0.0000
 XYZ=   -0.9619    9.2894    1.4154 Q=   -0.8200 A=    0.0000 R=    0.0000 C=    0.0000
 XYZ=   -1.6456    8.7255    1.8788 Q=    0.4100 A=    0.0000 R=    0.0000 C=    0.0000
 XYZ=   -1.1622   10.2558    1.5768 Q=    0.4100 A=    0.0000 R=    0.0000 C=    0.0000
 XYZ=    7.3626   -1.6164    0.4475 Q=   -0.8200 A=    0.0000 R=    0.0000 C=    0.0000
 XYZ=    7.2530   -1.9344   -0.4942 Q=    0.4100 A=    0.0000 R=    0.0000 C=    0.0000
 XYZ=    7.6320   -2.3840    1.0292 Q=    0.4100 A=    0.0000 R=    0.0000 C=    0.0000
 XYZ=   -0.1613    2.1146    7.7733 Q=   -0.8200 A=    0.0000 R=    0.0000 C=    0.0000
 XYZ=   -0.7211    1.3036    7.6034 Q=    0.4100 A=    0.0000 R=    0.0000 C=    0.0000
 XYZ=   -0.0114    2.2161    8.7568 Q=    0.4100 A=    0.0000 R=    0.0000 C=    0.0000
 XYZ=    1.8967    5.0379   -6.2548 Q=   -0.8200 A=    0.0000 R=    0.0000 C=    0.0000
 XYZ=    1.4340    4.1831   -6.4901 Q=    0.4100 A=    0.0000 R=    0.0000 C=    0.0000
 XYZ=    2.8253    5.0272   -6.6258 Q=    0.4100 A=    0.0000 R=    0.0000 C=    0.0000
 XYZ=   -8.5645    0.7342   -2.3678 Q=   -0.8200 A=    0.0000 R=    0.0000 C=    0.0000
 XYZ=   -8.6669    1.7259   -2.4459 Q=    0.4100 A=    0.0000 R=    0.0000 C=    0.0000
 XYZ=   -7.6633    0.4644   -2.7070 Q=    0.4100 A=    0.0000 R=    0.0000 C=    0.0000
 XYZ=   -3.9409    1.6872   -8.6241 Q=   -0.8200 A=    0.0000 R=    0.0000 C=    0.0000
 XYZ=   -4.1016    0.7611   -8.9655 Q=    0.4100 A=    0.0000 R=    0.0000 C=    0.0000
 XYZ=   -3.6675    1.6453   -7.6631 Q=    0.4100 A=    0.0000 R=    0.0000 C=    0.0000
 XYZ=   -2.5456    9.2595   -2.4181 Q=   -0.8200 A=    0.0000 R=    0.0000 C=    0.0000
 XYZ=   -2.7183   10.0237   -1.7967 Q=    0.4100 A=    0.0000 R=    0.0000 C=    0.0000
 XYZ=   -1.6669    8.8387   -2.1925 Q=    0.4100 A=    0.0000 R=    0.0000 C=    0.0000
 XYZ=    1.6378    4.6563    7.3530 Q=   -0.8200 A=    0.0000 R=    0.0000 C=    0.0000
 XYZ=    1.9961    4.9002    8.2543 Q=    0.4100 A=    0.0000 R=    0.0000 C=    0.0000
 XYZ=    1.8566    3.7009    7.1548 Q=    0.4100 A=    0.0000 R=    0.0000 C=    0.0000
 XYZ=    8.0166    0.5833   -0.2404 Q=   -0.8200 A=    0.0000 R=    0.0000 C=    0.0000
 XYZ=    7.1228    0.9134   -0.5440 Q=    0.4100 A=    0.0000 R=    0.0000 C=    0.0000
 XYZ=    7.9279   -0.3525    0.1008 Q=    0.4100 A=    0.0000 R=    0.0000 C=    0.0000
 XYZ=    7.3485   -2.9717   -1.5498 Q=   -0.8200 A=    0.0000 R=    0.0000 C=    0.0000
 XYZ=    6.7579   -3.5958   -1.0382 Q=    0.4100 A=    0.0000 R=    0.0000 C=    0.0000
 XYZ=    8.2394   -3.4014   -1.6970 Q=    0.4100 A=    0.0000 R=    0.0000 C=    0.0000
 XYZ=   -6.4572    3.4884   -4.4927 Q=   -0.8200 A=    0.0000 R=    0.0000 C=    0.0000
 XYZ=   -5.9807    3.4219   -5.3694 Q=    0.4100 A=    0.0000 R=    0.0000 C=    0.0000
 XYZ=   -7.3497    3.0430   -4.5638 Q=    0.4100 A=    0.0000 R=    0.0000 C=    0.0000
 XYZ=   -2.4974    5.8493    6.3894 Q=   -0.8200 A=    0.0000 R=    0.0000 C=    0.0000
 XYZ=   -2.8951    5.7784    5.4746 Q=    0.4100 A=    0.0000 R=    0.0000 C=    0.0000
 XYZ=   -1.7689    5.1716    6.4895 Q=    0.4100 A=    0.0000 R=    0.0000 C=    0.0000
 XYZ=   -6.3032    5.5474   -3.2990 Q=   -0.8200 A=    0.0000 R=    0.0000 C=    0.0000
 XYZ=   -6.2128    6.3181   -3.9298 Q=    0.4100 A=    0.0000 R=    0.0000 C=    0.0000
 XYZ=   -6.2883    4.6909   -3.8150 Q=    0.4100 A=    0.0000 R=    0.0000 C=    0.0000
 XYZ=    7.4283    3.1899    0.6762 Q=   -0.8200 A=    0.0000 R=    0.0000 C=    0.0000
 XYZ=    6.7301    3.6468    1.2274 Q=    0.4100 A=    0.0000 R=    0.0000 C=    0.0000
 XYZ=    6.9862    2.6046   -0.0034 Q=    0.4100 A=    0.0000 R=    0.0000 C=    0.0000
 XYZ=   -1.1892    0.0606    7.7546 Q=   -0.8200 A=    0.0000 R=    0.0000 C=    0.0000
 XYZ=   -0.7138   -0.7941    7.5461 Q=    0.4100 A=    0.0000 R=    0.0000 C=    0.0000
 XYZ=   -2.0628   -0.1432    8.1966 Q=    0.4100 A=    0.0000 R=    0.0000 C=    0.0000
 XYZ=    1.7293    8.9540   -2.5161 Q=   -0.8200 A=    0.0000 R=    0.0000 C=    0.0000
 XYZ=    1.6952    9.3934   -3.4137 Q=    0.4100 A=    0.0000 R=    0.0000 C=    0.0000
 XYZ=    2.3386    8.1621   -2.5556 Q=    0.4100 A=    0.0000 R=    0.0000 C=    0.0000
 XYZ=   -1.8654   -8.4491   -0.9361 Q=   -0.8200 A=    0.0000 R=    0.0000 C=    0.0000
 XYZ=   -2.7864   -8.4254   -1.3251 Q=    0.4100 A=    0.0000 R=    0.0000 C=    0.0000
 XYZ=   -1.5594   -9.3983   -0.8618 Q=    0.4100 A=    0.0000 R=    0.0000 C=    0.0000
 XYZ=   -5.4721   -3.6320    3.9899 Q=   -0.8200 A=    0.0000 R=    0.0000 C=    0.0000
 XYZ=   -6.2931   -3.0831    3.8328 Q=    0.4100 A=    0.0000 R=    0.0000 C=    0.0000
 XYZ=   -4.7943   -3.0848    4.4811 Q=    0.4100 A=    0.0000 R=    0.0000 C=    0.0000
 XYZ=   -6.5070    5.9949    2.2044 Q=   -0.8200 A=    0.0000 R=    0.0000 C=    0.0000
 XYZ=   -7.0565    5.9985    3.0399 Q=    0.4100 A=    0.0000 R=    0.0000 C=    0.0000
 XYZ=   -7.0494    5.6244    1.4503 Q=    0.4100 A=    0.0000 R=    0.0000 C=    0.0000
 XYZ=    6.8619   -5.7245    1.5345 Q=   -0.8200 A=    0.0000 R=    0.0000 C=    0.0000
 XYZ=    6.3172   -5.3827    0.7686 Q=    0.4100 A=    0.0000 R=    0.0000 C=    0.0000
 XYZ=    6.2534   -6.0814    2.2433 Q=    0.4100 A=    0.0000 R=    0.0000 C=    0.0000
 XYZ=    5.6780   -5.6434   -2.4718 Q=   -0.8200 A=    0.0000 R=    0.0000 C=    0.0000
 XYZ=    6.5203   -6.1780   -2.4019 Q=    0.4100 A=    0.0000 R=    0.0000 C=    0.0000
 XYZ=    5.6595   -5.1638   -3.3491 Q=    0.4100 A=    0.0000 R=    0.0000 C=    0.0000
 XYZ=   -4.4190   -6.7621    3.4827 Q=   -0.8200 A=    0.0000 R=    0.0000 C=    0.0000
 XYZ=   -4.0318   -6.2644    2.7066 Q=    0.4100 A=    0.0000 R=    0.0000 C=    0.0000
 XYZ=   -5.0127   -6.1519    4.0072 Q=    0.4100 A=    0.0000 R=    0.0000 C=    0.0000
 XYZ=    1.0932    7.9442    4.7804 Q=   -0.8200 A=    0.0000 R=    0.0000 C=    0.0000
 XYZ=    1.6013    7.3420    5.3962 Q=    0.4100 A=    0.0000 R=    0.0000 C=    0.0000
 XYZ=    0.1525    7.6160    4.6944 Q=    0.4100 A=    0.0000 R=    0.0000 C=    0.0000
 XYZ=   -0.4063    5.6555   -6.7916 Q=   -0.8200 A=    0.0000 R=    0.0000 C=    0.0000
 XYZ=    0.4937    5.9819   -6.5028 Q=    0.4100 A=    0.0000 R=    0.0000 C=    0.0000
 XYZ=   -1.1134    6.2614   -6.4269 Q=    0.4100 A=    0.0000 R=    0.0000 C=    0.0000
 XYZ=    1.2912   -4.9648    7.7346 Q=   -0.8200 A=    0.0000 R=    0.0000 C=    0.0000
 XYZ=    1.7909   -4.8736    6.8732 Q=    0.4100 A=    0.0000 R=    0.0000 C=    0.0000
 XYZ=    1.8545   -5.4605    8.3958 Q=    0.4100 A=    0.0000 R=    0.0000 C=    0.0000
 XYZ=    3.8653    0.0427   -7.8975 Q=   -0.8200 A=    0.0000 R=    0.0000 C=    0.0000
 XYZ=    3.8825    0.8592   -8.4746 Q=    0.4100 A=    0.0000 R=    0.0000 C=    0.0000
 XYZ=    2.9172   -0.2012   -7.6936 Q=    0.4100 A=    0.0000 R=    0.0000 C=    0.0000
 XYZ=   -8.9342   -0.2937   -0.2673 Q=   -0.8200 A=    0.0000 R=    0.0000 C=    0.0000
 XYZ=   -8.7307    0.1867   -1.1204 Q=    0.4100 A=    0.0000 R=    0.0000 C=    0.0000
 XYZ=   -8.1231   -0.7947    0.0347 Q=    0.4100 A=    0.0000 R=    0.0000 C=    0.0000
 XYZ=    3.7153    2.3316    8.4430 Q=   -0.8200 A=    0.0000 R=    0.0000 C=    0.0000
 XYZ=    4.5445    2.8398    8.2102 Q=    0.4100 A=    0.0000 R=    0.0000 C=    0.0000
 XYZ=    3.0718    2.3756    7.6787 Q=    0.4100 A=    0.0000 R=    0.0000 C=    0.0000
 XYZ=    1.1734    9.3445    2.5723 Q=   -0.8200 A=    0.0000 R=    0.0000 C=    0.0000
 XYZ=    0.2639    9.3295    2.1568 Q=    0.4100 A=    0.0000 R=    0.0000 C=    0.0000
 XYZ=    1.1565    8.8305    3.4300 Q=    0.4100 A=    0.0000 R=    0.0000 C=    0.0000
 XYZ=   -6.0693   -0.6959    4.8441 Q=   -0.8200 A=    0.0000 R=    0.0000 C=    0.0000
 XYZ=   -6.6805   -1.2997    4.3323 Q=    0.4100 A=    0.0000 R=    0.0000 C=    0.0000
 XYZ=   -5.2941   -1.2232    5.1918 Q=    0.4100 A=    0.0000 R=    0.0000 C=    0.0000
 XYZ=    8.0786    1.9987    2.8118 Q=   -0.8200 A=    0.0000 R=    0.0000 C=    0.0000
 XYZ=    7.8247    2.2736    1.8845 Q=    0.4100 A=    0.0000 R=    0.0000 C=    0.0000
 XYZ=    7.4199    1.3279    3.1527 Q=    0.4100 A=    0.0000 R=    0.0000 C=    0.0000
 XYZ=    7.8648   -3.5573    1.8626 Q=   -0.8200 A=    0.0000 R=    0.0000 C=    0.0000
 XYZ=    7.5958   -3.2452    2.7738 Q=    0.4100 A=    0.0000 R=    0.0000 C=    0.0000
 XYZ=    7.4737   -4.4616    1.6912 Q=    0.4100 A=    0.0000 R=    0.0000 C=    0.0000
 XYZ=   -8.2559    5.0161   -2.1009 Q=   -0.8200 A=    0.0000 R=    0.0000 C=    0.0000
 XYZ=   -7.4302    5.1415   -2.6510 Q=    0.4100 A=    0.0000 R=    0.0000 C=    0.0000
 XYZ=   -8.0189    5.0560   -1.1302 Q=    0.4100 A=    0.0000 R=    0.0000 C=    0.0000
 XYZ=    5.2191    5.7345   -3.1130 Q=   -0.8200 A=    0.0000 R=    0.0000 C=    0.0000
 XYZ=    5.6473    6.5602   -2.7460 Q=    0.4100 A=    0.0000 R=    0.0000 C=    0.0000
 XYZ=    5.9247    5.0560   -3.3178 Q=    0.4100 A=    0.0000 R=    0.0000 C=    0.0000
 XYZ=    1.1460   -7.8184    3.9331 Q=   -0.8200 A=    0.0000 R=    0.0000 C=    0.0000
 XYZ=    0.3819   -7.5724    4.5295 Q=    0.4100 A=    0.0000 R=    0.0000 C=    0.0000
 XYZ=    0.7953   -8.2596    3.1070 Q=    0.4100 A=    0.0000 R=    0.0000 C=    0.0000
 XYZ=    6.5237   -2.5719   -5.2496 Q=   -0.8200 A=    0.0000 R=    0.0000 C=    0.0000
 XYZ=    7.0097   -2.1730   -4.4719 Q=    0.4100 A=    0.0000 R=    0.0000 C=    0.0000
 XYZ=    5.8896   -1.8974   -5.6278 Q=    0.4100 A=    0.0000 R=    0.0000 C=    0.0000
 XYZ=    5.4363   -0.6346   -6.1068 Q=   -0.8200 A=    0.0000 R=    0.0000 C=    0.0000
 XYZ=    4.8546   -0.1534   -6.7626 Q=    0.4100 A=    0.0000 R=    0.0000 C=    0.0000
 XYZ=    5.9158    0.0313   -5.5353 Q=    0.4100 A=    0.0000 R=    0.0000 C=    0.0000
 XYZ=   -7.1359   -6.1086    0.3045 Q=   -0.8200 A=    0.0000 R=    0.0000 C=    0.0000
 XYZ=   -7.8904   -6.3594   -0.3021 Q=    0.4100 A=    0.0000 R=    0.0000 C=    0.0000
 XYZ=   -6.6681   -5.3038   -0.0607 Q=    0.4100 A=    0.0000 R=    0.0000 C=    0.0000
 XYZ=   -9.1382    1.2945    1.3842 Q=   -0.8200 A=    0.0000 R=    0.0000 C=    0.0000
 XYZ=   -8.2061    1.4560    1.7086 Q=    0.4100 A=    0.0000 R=    0.0000 C=    0.0000
 XYZ=   -9.1195    0.6383    0.6298 Q=    0.4100 A=    0.0000 R=    0.0000 C=    0.0000
 XYZ=    6.9505   -0.8586    5.2790 Q=   -0.8200 A=    0.0000 R=    0.0000 C=    0.0000
 XYZ=    7.4439   -0.7691    6.1443 Q=    0.4100 A=    0.0000 R=    0.0000 C=    0.0000
 XYZ=    7.1272   -1.7612    4.8865 Q=    0.4100 A=    0.0000 R=    0.0000 C=    0.0000
 XYZ=    6.0131   -4.6342   -4.5770 Q=   -0.8200 A=    0.0000 R=    0.0000 C=    0.0000
 XYZ=    6.2774   -3.6873   -4.7604 Q=    0.4100 A=    0.0000 R=    0.0000 C=    0.0000
 XYZ=    5.5145   -4.9993   -5.3632 Q=    0.4100 A=    0.0000 R=    0.0000 C=    0.0000
 XYZ=   -0.8719   -7.1321    5.0580 Q=   -0.8200 A=    0.0000 R=    0.0000 C=    0.0000
 XYZ=   -0.6950   -6.7318    5.9572 Q=    0.4100 A=    0.0000 R=    0.0000 C=    0.0000
 XYZ=   -1.7318   -7.6421    5.0836 Q=    0.4100 A=    0.0000 R=    0.0000 C=    0.0000
 XYZ=   -4.1794   -8.1699   -1.6314 Q=   -0.8200 A=    0.0000 R=    0.0000 C=    0.0000
 XYZ=   -4.6839   -8.4166   -0.8040 Q=    0.4100 A=    0.0000 R=    0.0000 C=    0.0000
 XYZ=   -4.2130   -8.9294   -2.2812 Q=    0.4100 A=    0.0000 R=    0.0000 C=    0.0000
 XYZ=    7.7782   -1.4578   -3.6257 Q=   -0.8200 A=    0.0000 R=    0.0000 C=    0.0000
 XYZ=    8.7359   -1.1732   -3.5823 Q=    0.4100 A=    0.0000 R=    0.0000 C=    0.0000
 XYZ=    7.5434   -1.9651   -2.7965 Q=    0.4100 A=    0.0000 R=    0.0000 C=    0.0000
 XYZ=   -6.0193    8.5754    1.9544 Q=   -0.8200 A=    0.0000 R=    0.0000 C=    0.0000
 XYZ=   -6.3063    7.6212    1.8691 Q=    0.4100 A=    0.0000 R=    0.0000 C=    0.0000
 XYZ=   -5.6983    8.7448    2.8862 Q=    0.4100 A=    0.0000 R=    0.0000 C=    0.0000
 XYZ=   -7.1652    5.5157    4.3688 Q=   -0.8200 A=    0.0000 R=    0.0000 C=    0.0000
 XYZ=   -6.7202    4.6290    4.4942 Q=    0.4100 A=    0.0000 R=    0.0000 C=    0.0000
 XYZ=   -6.6005    6.2328    4.7773 Q=    0.4100 A=    0.0000 R=    0.0000 C=    0.0000
 XYZ=   -2.5474    9.3082   -4.7596 Q=   -0.8200 A=    0.0000 R=    0.0000 C=    0.0000
 XYZ=   -2.5291    9.3069   -3.7597 Q=    0.4100 A=    0.0000 R=    0.0000 C=    0.0000
 XYZ=   -2.5344    8.3659   -5.0943 Q=    0.4100 A=    0.0000 R=    0.0000 C=    0.0000
 XYZ=   -7.3448   -2.3853    3.5219 Q=   -0.8200 A=    0.0000 R=    0.0000 C=    0.0000
 XYZ=   -7.2925   -2.1101    2.5619 Q=    0.4100 A=    0.0000 R=    0.0000 C=    0.0000
 XYZ=   -8.0153   -3.1204    3.6218 Q=    0.4100 A=    0.0000 R=    0.0000 C=    0.0000
 XYZ=   -5.4689   -5.9397   -4.9185 Q=   -0.8200 A=    0.0000 R=    0.0000 C=    0.0000
 XYZ=   -5.0606   -5.5647   -5.7508 Q=    0.4100 A=    0.0000 R=    0.0000 C=    0.0000
 XYZ=   -6.4307   -6.1554   -5.0871 Q=    0.4100 A=    0.0000 R=    0.0000 C=    0.0000
 XYZ=   -0.6331    4.6547   -8.8504 Q=   -0.8200 A=    0.0000 R=    0.0000 C=    0.0000
 XYZ=   -0.3577    5.1055   -8.0013 Q=    0.4100 A=    0.0000 R=    0.0000 C=    0.0000
 XYZ=   -1.3603    5.1836   -9.2878 Q=    0.4100 A=    0.0000 R=    0.0000 C=    0.0000
 XYZ=   -4.4896    5.1170    7.4829 Q=   -0.8200 A=    0.0000 R=    0.0000 C=    0.0000
 XYZ=   -5.0232    5.9628    7.4761 Q=    0.4100 A=    0.0000 R=    0.0000 C=    0.0000
 XYZ=   -3.6034    5.2786    7.0485 Q=    0.4100 A=    0.0000 R=    0.0000 C=    0.0000
 XYZ=    5.9268    7.6627   -1.5474 Q=   -0.8200 A=    0.0000 R=    0.0000 C=    0.0000
 XYZ=    5.0695    7.8701   -1.0762 Q=    0.4100 A=    0.0000 R=    0.0000 C=    0.0000
 XYZ=    6.6936    7.8003   -0.9205 Q=    0.4100 A=    0.0000 R=    0.0000 C=    0.0000
 XYZ=   -0.6404   -6.0253    7.2133 Q=   -0.8200 A=    0.0000 R=    0.0000 C=    0.0000
 XYZ=    0.1407   -5.4783    7.5144 Q=    0.4100 A=    0.0000 R=    0.0000 C=    0.0000
 XYZ=   -1.4863   -5.5189    7.3808 Q=    0.4100 A=    0.0000 R=    0.0000 C=    0.0000
 XYZ=   -2.1906    2.8045   -9.8812 Q=   -0.8200 A=    0.0000 R=    0.0000 C=    0.0000
 XYZ=   -2.8424    2.2673   -9.3459 Q=    0.4100 A=    0.0000 R=    0.0000 C=    0.0000
 XYZ=   -1.5869    3.3081   -9.2631 Q=    0.4100 A=    0.0000 R=    0.0000 C=    0.0000
 XYZ=    8.0088    5.9656    1.7254 Q=   -0.8200 A=    0.0000 R=    0.0000 C=    0.0000
 XYZ=    7.1683    5.5369    2.0569 Q=    0.4100 A=    0.0000 R=    0.0000 C=    0.0000
 XYZ=    8.7423    5.2864    1.7013 Q=    0.4100 A=    0.0000 R=    0.0000 C=    0.0000
 XYZ=   -1.5498    5.0282    9.2930 Q=   -0.8200 A=    0.0000 R=    0.0000 C=    0.0000
 XYZ=   -1.8251    5.9891    9.3225 Q=    0.4100 A=    0.0000 R=    0.0000 C=    0.0000
 XYZ=   -1.2219    4.8035    8.3754 Q=    0.4100 A=    0.0000 R=    0.0000 C=    0.0000
 XYZ=    0.4348   -3.2370    9.0938 Q=   -0.8200 A=    0.0000 R=    0.0000 C=    0.0000
 XYZ=    0.8986   -3.8357    8.4407 Q=    0.4100 A=    0.0000 R=    0.0000 C=    0.0000
 XYZ=   -0.4458   -3.6381    9.3464 Q=    0.4100 A=    0.0000 R=    0.0000 C=    0.0000
 XYZ=    1.9286   10.9807   -0.8046 Q=   -0.8200 A=    0.0000 R=    0.0000 C=    0.0000
 XYZ=    2.7675   11.5004   -0.9667 Q=    0.4100 A=    0.0000 R=    0.0000 C=    0.0000
 XYZ=    1.9277   10.1619   -1.3786 Q=    0.4100 A=    0.0000 R=    0.0000 C=    0.0000
 XYZ=    7.1572    0.5289   -4.8659 Q=   -0.8200 A=    0.0000 R=    0.0000 C=    0.0000
 XYZ=    7.7509    0.5938   -5.6679 Q=    0.4100 A=    0.0000 R=    0.0000 C=    0.0000
 XYZ=    7.3918   -0.2906   -4.3430 Q=    0.4100 A=    0.0000 R=    0.0000 C=    0.0000
 XYZ=   -5.3991    3.5765   -8.6710 Q=   -0.8200 A=    0.0000 R=    0.0000 C=    0.0000
 XYZ=   -4.9667    4.1378   -9.3766 Q=    0.4100 A=    0.0000 R=    0.0000 C=    0.0000
 XYZ=   -4.9206    2.7012   -8.6018 Q=    0.4100 A=    0.0000 R=    0.0000 C=    0.0000
 XYZ=    7.2992    2.2793   -3.2900 Q=   -0.8200 A=    0.0000 R=    0.0000 C=    0.0000
 XYZ=    6.9366    3.1150   -3.7024 Q=    0.4100 A=    0.0000 R=    0.0000 C=    0.0000
 XYZ=    7.2661    1.5362   -3.9585 Q=    0.4100 A=    0.0000 R=    0.0000 C=    0.0000
 XYZ=   -4.6423   -8.0923   -5.1804 Q=   -0.8200 A=    0.0000 R=    0.0000 C=    0.0000
 XYZ=   -4.9629   -7.1808   -4.9228 Q=    0.4100 A=    0.0000 R=    0.0000 C=    0.0000
 XYZ=   -5.4281   -8.6792   -5.3757 Q=    0.4100 A=    0.0000 R=    0.0000 C=    0.0000
 XYZ=   -6.1905   -5.6504    4.4132 Q=   -0.8200 A=    0.0000 R=    0.0000 C=    0.0000
 XYZ=   -6.8014   -5.8871    3.6578 Q=    0.4100 A=    0.0000 R=    0.0000 C=    0.0000
 XYZ=   -5.8387   -4.7238    4.2796 Q=    0.4100 A=    0.0000 R=    0.0000 C=    0.0000
 XYZ=   -8.5981    2.8213   -4.8396 Q=   -0.8200 A=    0.0000 R=    0.0000 C=    0.0000
 XYZ=   -8.7928    2.8537   -3.8592 Q=    0.4100 A=    0.0000 R=    0.0000 C=    0.0000
 XYZ=   -9.4477    2.6644   -5.3431 Q=    0.4100 A=    0.0000 R=    0.0000 C=    0.0000
 XYZ=   -9.2783    3.0556   -2.6251 Q=   -0.8200 A=    0.0000 R=    0.0000 C=    0.0000
 XYZ=  -10.1825    2.8935   -2.2300 Q=    0.4100 A=    0.0000 R=    0.0000 C=    0.0000
 XYZ=   -8.9042    3.9091   -2.2623 Q=    0.4100 A=    0.0000 R=    0.0000 C=    0.0000
 XYZ=   -5.8198   -8.1836    0.0555 Q=   -0.8200 A=    0.0000 R=    0.0000 C=    0.0000
 XYZ=   -6.2351   -7.2859    0.2024 Q=    0.4100 A=    0.0000 R=    0.0000 C=    0.0000
 XYZ=   -5.5951   -8.5955    0.9387 Q=    0.4100 A=    0.0000 R=    0.0000 C=    0.0000
 XYZ=   -5.6757    3.2621    6.9031 Q=   -0.8200 A=    0.0000 R=    0.0000 C=    0.0000
 XYZ=   -5.7247    2.7145    7.7384 Q=    0.4100 A=    0.0000 R=    0.0000 C=    0.0000
 XYZ=   -5.1223    4.0778    7.0713 Q=    0.4100 A=    0.0000 R=    0.0000 C=    0.0000
 XYZ=    9.0552    1.3064   -2.0980 Q=   -0.8200 A=    0.0000 R=    0.0000 C=    0.0000
 XYZ=    8.3587    1.8253   -2.5937 Q=    0.4100 A=    0.0000 R=    0.0000 C=    0.0000
 XYZ=    8.7086    1.0645   -1.1918 Q=    0.4100 A=    0.0000 R=    0.0000 C=    0.0000
 XYZ=    6.5098    1.9683    6.5497 Q=   -0.8200 A=    0.0000 R=    0.0000 C=    0.0000
 XYZ=    7.3214    2.3554    6.1121 Q=    0.4100 A=    0.0000 R=    0.0000 C=    0.0000
 XYZ=    6.2639    2.5222    7.3451 Q=    0.4100 A=    0.0000 R=    0.0000 C=    0.0000
 XYZ=   -3.3431   -7.1467   -6.9681 Q=   -0.8200 A=    0.0000 R=    0.0000 C=    0.0000
 XYZ=   -3.7915   -6.2588   -7.0711 Q=    0.4100 A=    0.0000 R=    0.0000 C=    0.0000
 XYZ=   -3.7674   -7.6489   -6.2147 Q=    0.4100 A=    0.0000 R=    0.0000 C=    0.0000
 XYZ=   -4.9005   -5.3832   -7.0550 Q=   -0.8200 A=    0.0000 R=    0.0000 C=    0.0000
 XYZ=   -4.6563   -4.5511   -7.5529 Q=    0.4100 A=    0.0000 R=    0.0000 C=    0.0000
 XYZ=   -5.7150   -5.7914   -7.4673 Q=    0.4100 A=    0.0000 R=    0.0000 C=    0.0000
 XYZ=   -7.1227    1.3766    6.6294 Q=   -0.8200 A=    0.0000 R=    0.0000 C=    0.0000
 XYZ=   -6.7243    0.6893    6.0220 Q=    0.4100 A=    0.0000 R=    0.0000 C=    0.0000
 XYZ=   -6.6484    2.2480    6.5032 Q=    0.4100 A=    0.0000 R=    0.0000 C=    0.0000
 XYZ=    5.1186   -0.0782    8.2280 Q=   -0.8200 A=    0.0000 R=    0.0000 C=    0.0000
 XYZ=    6.0547    0.1322    7.9463 Q=    0.4100 A=    0.0000 R=    0.0000 C=    0.0000
 XYZ=    4.5866    0.7673    8.2748 Q=    0.4100 A=    0.0000 R=    0.0000 C=    0.0000
 XYZ=    9.7280   -3.8735    0.3998 Q=   -0.8200 A=    0.0000 R=    0.0000 C=    0.0000
 XYZ=    8.9498   -3.5361    0.9295 Q=    0.4100 A=    0.0000 R=    0.0000 C=    0.0000
 XYZ=    9.4065   -4.2181   -0.4822 Q=    0.4100 A=    0.0000 R=    0.0000 C=    0.0000
 XYZ=   -9.3295    3.9264    1.7837 Q=   -0.8200 A=    0.0000 R=    0.0000 C=    0.0000
 XYZ=  -10.2019    4.0169    1.3032 Q=    0.4100 A=    0.0000 R=    0.0000 C=    0.0000
 XYZ=   -9.1649    2.9633    1.9968 Q=    0.4100 A=    0.0000 R=    0.0000 C=    0.0000
 XYZ=    8.1890   -4.8794   -3.7191 Q=   -0.8200 A=    0.0000 R=    0.0000 C=    0.0000
 XYZ=    7.3230   -4.6983   -4.1852 Q=    0.4100 A=    0.0000 R=    0.0000 C=    0.0000
 XYZ=    8.9446   -4.7674   -4.3645 Q=    0.4100 A=    0.0000 R=    0.0000 C=    0.0000
 XYZ=    2.6549    3.5842   -8.7857 Q=   -0.8200 A=    0.0000 R=    0.0000 C=    0.0000
 XYZ=    3.1493    4.1301   -8.1092 Q=    0.4100 A=    0.0000 R=    0.0000 C=    0.0000
 XYZ=    3.2458    2.8484   -9.1165 Q=    0.4100 A=    0.0000 R=    0.0000 C=    0.0000
 XYZ=   -5.6906    6.9501    5.3769 Q=   -0.8200 A=    0.0000 R=    0.0000 C=    0.0000
 XYZ=   -5.4898    7.8718    5.0449 Q=    0.4100 A=    0.0000 R=    0.0000 C=    0.0000
 XYZ=   -5.7936    6.9692    6.3715 Q=    0.4100 A=    0.0000 R=    0.0000 C=    0.0000
 XYZ=   -2.6019   -4.8494    7.6967 Q=   -0.8200 A=    0.0000 R=    0.0000 C=    0.0000
 XYZ=   -3.1055   -5.7076    7.7956 Q=    0.4100 A=    0.0000 R=    0.0000 C=    0.0000
 XYZ=   -2.3526   -4.5032    8.6012 Q=    0.4100 A=    0.0000 R=    0.0000 C=    0.0000
 XYZ=    6.3419   -3.6194   -7.3787 Q=   -0.8200 A=    0.0000 R=    0.0000 C=    0.0000
 XYZ=    6.4646   -3.1853   -6.4862 Q=    0.4100 A=    0.0000 R=    0.0000 C=    0.0000
 XYZ=    7.2349   -3.7605   -7.8062 Q=    0.4100 A=    0.0000 R=    0.0000 C=    0.0000
 XYZ=   -3.1989   -7.9887    5.2522 Q=   -0.8200 A=    0.0000 R=    0.0000 C=    0.0000
 XYZ=   -3.5909   -7.5459    4.4457 Q=    0.4100 A=    0.0000 R=    0.0000 C=    0.0000
 XYZ=   -3.4440   -7.4685    6.0703 Q=    0.4100 A=    0.0000 R=    0.0000 C=    0.0000
 XYZ=    1.8248   11.3716    1.5674 Q=   -0.8200 A=    0.0000 R=    0.0000 C=    0.0000
 XYZ=    1.5071   10.5305    2.0051 Q=    0.4100 A=    0.0000 R=    0.0000 C=    0.0000
 XYZ=    2.0282   11.1904    0.6052 Q=    0.4100 A=    0.0000 R=    0.0000 C=    0.0000
 XYZ=   -1.6036  -10.7724    1.4800 Q=   -0.8200 A=    0.0000 R=    0.0000 C=    0.0000
 XYZ=   -1.2806   -9.8665    1.7540 Q=    0.4100 A=    0.0000 R=    0.0000 C=    0.0000
 XYZ=   -1.3903  -10.9244    0.5149 Q=    0.4100 A=    0.0000 R=    0.0000 C=    0.0000
 XYZ=   -3.2982    9.9607    3.5453 Q=   -0.8200 A=    0.0000 R=    0.0000 C=    0.0000
 XYZ=   -2.6690   10.3728    4.2043 Q=    0.4100 A=    0.0000 R=    0.0000 C=    0.0000
 XYZ=   -3.6783   10.6740    2.9564 Q=    0.4100 A=    0.0000 R=    0.0000 C=    0.0000
 XYZ=   -2.1692    7.2734    8.3866 Q=   -0.8200 A=    0.0000 R=    0.0000 C=    0.0000
 XYZ=   -2.2159    6.8777    7.4694 Q=    0.4100 A=    0.0000 R=    0.0000 C=    0.0000
 XYZ=   -3.0923    7.4936    8.7019 Q=    0.4100 A=    0.0000 R=    0.0000 C=    0.0000
 XYZ=  -10.7234   -0.0996   -2.8583 Q=   -0.8200 A=    0.0000 R=    0.0000 C=    0.0000
 XYZ=  -11.2646    0.7349   -2.7545 Q=    0.4100 A=    0.0000 R=    0.0000 C=    0.0000
 XYZ=   -9.7565    0.1100   -2.7132 Q=    0.4100 A=    0.0000 R=    0.0000 C=    0.0000
 XYZ=   -5.3703   10.4745    0.4838 Q=   -0.8200 A=    0.0000 R=    0.0000 C=    0.0000
 XYZ=   -6.0125   10.7353   -0.2371 Q=    0.4100 A=    0.0000 R=    0.0000 C=    0.0000
 XYZ=   -5.7403    9.6987    0.9949 Q=    0.4100 A=    0.0000 R=    0.0000 C=    0.0000
 XYZ=   -1.1388   -7.8186   -7.8069 Q=   -0.8200 A=    0.0000 R=    0.0000 C=    0.0000
 XYZ=   -1.3929   -8.1388   -8.7196 Q=    0.4100 A=    0.0000 R=    0.0000 C=    0.0000
 XYZ=   -1.9566   -7.5060   -7.3238 Q=    0.4100 A=    0.0000 R=    0.0000 C=    0.0000
 XYZ=    9.5363    4.1323    1.3944 Q=   -0.8200 A=    0.0000 R=    0.0000 C=    0.0000
 XYZ=    9.7309    3.6669    2.2579 Q=    0.4100 A=    0.0000 R=    0.0000 C=    0.0000
 XYZ=    8.6548    3.8210    1.0393 Q=    0.4100 A=    0.0000 R=    0.0000 C=    0.0000
 XYZ=   10.3217    0.6675    0.8969 Q=   -0.8200 A=    0.0000 R=    0.0000 C=    0.0000
 XYZ=   10.3119    0.4731    1.8778 Q=    0.4100 A=    0.0000 R=    0.0000 C=    0.0000
 XYZ=    9.4025    0.9252    0.5990 Q=    0.4100 A=    0.0000 R=    0.0000 C=    0.0000
 XYZ=   -5.2920   -8.7887    2.2525 Q=   -0.8200 A=    0.0000 R=    0.0000 C=    0.0000
 XYZ=   -4.8755   -8.0825    2.8251 Q=    0.4100 A=    0.0000 R=    0.0000 C=    0.0000
 XYZ=   -4.6338   -9.5261    2.1010 Q=    0.4100 A=    0.0000 R=    0.0000 C=    0.0000
 XYZ=   -5.3715    9.1430    4.2738 Q=   -0.8200 A=    0.0000 R=    0.0000 C=    0.0000
 XYZ=   -5.8309    9.8912    4.7526 Q=    0.4100 A=    0.0000 R=    0.0000 C=    0.0000
 XYZ=   -4.4579    9.4379    3.9935 Q=    0.4100 A=    0.0000 R=    0.0000 C=    0.0000
 XYZ=   -4.5967   -3.8356   -8.6704 Q=   -0.8200 A=    0.0000 R=    0.0000 C=    0.0000
 XYZ=   -4.1894   -4.1326   -9.5341 Q=    0.4100 A=    0.0000 R=    0.0000 C=    0.0000
 XYZ=   -5.0524   -2.9552   -8.8022 Q=    0.4100 A=    0.0000 R=    0.0000 C=    0.0000
 XYZ=    5.8751   -1.5556   -8.5726 Q=   -0.8200 A=    0.0000 R=    0.0000 C=    0.0000
 XYZ=    5.9641   -2.4075   -8.0564 Q=    0.4100 A=    0.0000 R=    0.0000 C=    0.0000
 XYZ=    5.2513   -0.9387   -8.0926 Q=    0.4100 A=    0.0000 R=    0.0000 C=    0.0000
 XYZ=   -4.3271   -0.2561   -9.8968 Q=   -0.8200 A=    0.0000 R=    0.0000 C=    0.0000
 XYZ=   -5.0035   -0.9751   -9.7371 Q=    0.4100 A=    0.0000 R=    0.0000 C=    0.0000
 XYZ=   -4.1139   -0.2100  -10.8728 Q=    0.4100 A=    0.0000 R=    0.0000 C=    0.0000
 XYZ=    0.5028   -6.4897   -9.1668 Q=   -0.8200 A=    0.0000 R=    0.0000 C=    0.0000
 XYZ=    0.6672   -5.5136   -9.0240 Q=    0.4100 A=    0.0000 R=    0.0000 C=    0.0000
 XYZ=   -0.1300   -6.8266   -8.4696 Q=    0.4100 A=    0.0000 R=    0.0000 C=    0.0000
 XYZ=    6.9702    5.2237    5.4651 Q=   -0.8200 A=    0.0000 R=    0.0000 C=    0.0000
 XYZ=    7.6615    5.9435    5.4019 Q=    0.4100 A=    0.0000 R=    0.0000 C=    0.0000
 XYZ=    7.4033    4.3703    5.7550 Q=    0.4100 A=    0.0000 R=    0.0000 C=    0.0000
 XYZ=    2.5799    1.9516   10.5044 Q=   -0.8200 A=    0.0000 R=    0.0000 C=    0.0000
 XYZ=    2.8780    1.9286    9.5501 Q=    0.4100 A=    0.0000 R=    0.0000 C=    0.0000
 XYZ=    2.8192    1.0885   10.9493 Q=    0.4100 A=    0.0000 R=    0.0000 C=    0.0000
 XYZ=    1.1287   10.0898    5.9556 Q=   -0.8200 A=    0.0000 R=    0.0000 C=    0.0000
 XYZ=    1.2196    9.1506    5.6243 Q=    0.4100 A=    0.0000 R=    0.0000 C=    0.0000
 XYZ=    1.8411   10.6586    5.5446 Q=    0.4100 A=    0.0000 R=    0.0000 C=    0.0000
 XYZ=    1.3609    9.7666   -4.9617 Q=   -0.8200 A=    0.0000 R=    0.0000 C=    0.0000
 XYZ=    0.5907   10.3701   -5.1683 Q=    0.4100 A=    0.0000 R=    0.0000 C=    0.0000
 XYZ=    1.7437    9.4110   -5.8144 Q=    0.4100 A=    0.0000 R=    0.0000 C=    0.0000
 XYZ=    3.9807    5.0468   -7.4689 Q=   -0.8200 A=    0.0000 R=    0.0000 C=    0.0000
 XYZ=    4.8546    4.9560   -6.9913 Q=    0.4100 A=    0.0000 R=    0.0000 C=    0.0000
 XYZ=    4.1470    5.2838   -8.4260 Q=    0.4100 A=    0.0000 R=    0.0000 C=    0.0000
 XYZ=    7.6256    0.1333    7.2662 Q=   -0.8200 A=    0.0000 R=    0.0000 C=    0.0000
 XYZ=    7.1574    0.8980    6.8236 Q=    0.4100 A=    0.0000 R=    0.0000 C=    0.0000
 XYZ=    8.5450    0.4176    7.5379 Q=    0.4100 A=    0.0000 R=    0.0000 C=    0.0000
 XYZ=   -2.2063   11.7787    0.9637 Q=   -0.8200 A=    0.0000 R=    0.0000 C=    0.0000
 XYZ=   -2.9062   11.8067    1.6774 Q=    0.4100 A=    0.0000 R=    0.0000 C=    0.0000
 XYZ=   -2.5828   11.3461    0.1445 Q=    0.4100 A=    0.0000 R=    0.0000 C=    0.0000
 XYZ=    6.9959    4.3580   -4.2502 Q=   -0.8200 A=    0.0000 R=    0.0000 C=    0.0000
 XYZ=    7.9366    4.6213   -4.0362 Q=    0.4100 A=    0.0000 R=    0.0000 C=    0.0000
 XYZ=    6.7535    4.6972   -5.1591 Q=    0.4100 A=    0.0000 R=    0.0000 C=    0.0000
 XYZ=   -3.5815   11.0823   -1.0170 Q=   -0.8200 A=    0.0000 R=    0.0000 C=    0.0000
 XYZ=   -3.9421   11.7793   -1.6369 Q=    0.4100 A=    0.0000 R=    0.0000 C=    0.0000
 XYZ=   -4.2256   10.9393   -0.2655 Q=    0.4100 A=    0.0000 R=    0.0000 C=    0.0000
 XYZ=   -4.2584   -9.7963   -3.5367 Q=   -0.8200 A=    0.0000 R=    0.0000 C=    0.0000
 XYZ=   -5.0932  -10.3427   -3.6046 Q=    0.4100 A=    0.0000 R=    0.0000 C=    0.0000
 XYZ=   -4.2945   -9.0489   -4.2003 Q=    0.4100 A=    0.0000 R=    0.0000 C=    0.0000
 XYZ=    0.2361    2.3688   10.0767 Q=   -0.8200 A=    0.0000 R=    0.0000 C=    0.0000
 XYZ=    1.2076    2.2181   10.2603 Q=    0.4100 A=    0.0000 R=    0.0000 C=    0.0000
 XYZ=   -0.0243    3.2824   10.3892 Q=    0.4100 A=    0.0000 R=    0.0000 C=    0.0000
 XYZ=   -1.4522  -10.6909   -0.9573 Q=   -0.8200 A=    0.0000 R=    0.0000 C=    0.0000
 XYZ=   -0.7450  -11.3673   -0.7514 Q=    0.4100 A=    0.0000 R=    0.0000 C=    0.0000
 XYZ=   -1.8866  -10.9178   -1.8291 Q=    0.4100 A=    0.0000 R=    0.0000 C=    0.0000
 XYZ=   -0.6291   -1.2655  -11.1772 Q=   -0.8200 A=    0.0000 R=    0.0000 C=    0.0000
 XYZ=   -0.4050   -2.1546  -11.5761 Q=    0.4100 A=    0.0000 R=    0.0000 C=    0.0000
 XYZ=   -1.4347   -1.3564  -10.5917 Q=    0.4100 A=    0.0000 R=    0.0000 C=    0.0000
 XYZ=   -0.9508   10.8075   -5.5948 Q=   -0.8200 A=    0.0000 R=    0.0000 C=    0.0000
 XYZ=   -1.3179   11.6518   -5.2043 Q=    0.4100 A=    0.0000 R=    0.0000 C=    0.0000
 XYZ=   -1.5320   10.0379   -5.3305 Q=    0.4100 A=    0.0000 R=    0.0000 C=    0.0000
 XYZ=    5.8042    5.7010    7.5875 Q=   -0.8200 A=    0.0000 R=    0.0000 C=    0.0000
 XYZ=    6.5868    5.7974    8.2025 Q=    0.4100 A=    0.0000 R=    0.0000 C=    0.0000
 XYZ=    6.1285    5.6282    6.6443 Q=    0.4100 A=    0.0000 R=    0.0000 C=    0.0000
 XYZ=   -7.7796   -6.3104    2.6215 Q=   -0.8200 A=    0.0000 R=    0.0000 C=    0.0000
 XYZ=   -7.4192   -6.5111    1.7105 Q=    0.4100 A=    0.0000 R=    0.0000 C=    0.0000
 XYZ=   -8.3695   -7.0610    2.9193 Q=    0.4100 A=    0.0000 R=    0.0000 C=    0.0000
 XYZ=   -8.5047    4.5237   -6.7204 Q=   -0.8200 A=    0.0000 R=    0.0000 C=    0.0000
 XYZ=   -8.0016    4.0899   -7.4679 Q=    0.4100 A=    0.0000 R=    0.0000 C=    0.0000
 XYZ=   -8.4445    3.9520   -5.9022 Q=    0.4100 A=    0.0000 R=    0.0000 C=    0.0000
 XYZ=    1.1632    4.4498  -10.2098 Q=   -0.8200 A=    0.0000 R=    0.0000 C=    0.0000
 XYZ=    0.3262    4.6704   -9.7089 Q=    0.4100 A=    0.0000 R=    0.0000 C=    0.0000
 XYZ=    1.7986    3.9722   -9.6030 Q=    0.4100 A=    0.0000 R=    0.0000 C=    0.0000
 XYZ=   -3.7131    4.2706    9.5727 Q=   -0.8200 A=    0.0000 R=    0.0000 C=    0.0000
 XYZ=   -2.7894    4.6533    9.5916 Q=    0.4100 A=    0.0000 R=    0.0000 C=    0.0000
 XYZ=   -4.1095    4.4013    8.6639 Q=    0.4100 A=    0.0000 R=    0.0000 C=    0.0000
 XYZ=    9.2907   -6.2345    1.2745 Q=   -0.8200 A=    0.0000 R=    0.0000 C=    0.0000
 XYZ=    9.5785   -5.3116    1.0184 Q=    0.4100 A=    0.0000 R=    0.0000 C=    0.0000
 XYZ=    8.3177   -6.2283    1.5050 Q=    0.4100 A=    0.0000 R=    0.0000 C=    0.0000
 XYZ=    9.8213    3.2302    3.5826 Q=   -0.8200 A=    0.0000 R=    0.0000 C=    0.0000
 XYZ=    9.0324    2.6882    3.2930 Q=    0.4100 A=    0.0000 R=    0.0000 C=    0.0000
 XYZ=   10.5809    2.6197    3.8067 Q=    0.4100 A=    0.0000 R=    0.0000 C=    0.0000
 XYZ=    2.5458    4.5703    9.6395 Q=   -0.8200 A=    0.0000 R=    0.0000 C=    0.0000
 XYZ=    1.6388    4.3776   10.0140 Q=    0.4100 A=    0.0000 R=    0.0000 C=    0.0000
 XYZ=    3.0536    3.7147    9.5391 Q=    0.4100 A=    0.0000 R=    0.0000 C=    0.0000
 XYZ=  -10.7768   -1.8758    0.6940 Q=   -0.8200 A=    0.0000 R=    0.0000 C=    0.0000
 XYZ=   -9.9842   -1.3728    0.3493 Q=    0.4100 A=    0.0000 R=    0.0000 C=    0.0000
 XYZ=  -10.4689   -2.7103    1.1510 Q=    0.4100 A=    0.0000 R=    0.0000 C=    0.0000
 XYZ=    9.2336   -4.1840   -1.8986 Q=   -0.8200 A=    0.0000 R=    0.0000 C=    0.0000
 XYZ=   10.2032   -4.3865   -2.0360 Q=    0.4100 A=    0.0000 R=    0.0000 C=    0.0000
 XYZ=    8.7136   -4.4852   -2.6979 Q=    0.4100 A=    0.0000 R=    0.0000 C=    0.0000
 XYZ=    5.8383    3.5519    8.1467 Q=   -0.8200 A=    0.0000 R=    0.0000 C=    0.0000
 XYZ=    6.2509    3.4149    9.0472 Q=    0.4100 A=    0.0000 R=    0.0000 C=    0.0000
 XYZ=    5.8103    4.5295    7.9381 Q=    0.4100 A=    0.0000 R=    0.0000 C=    0.0000
 XYZ=    7.7483   -6.8536   -2.3974 Q=   -0.8200 A=    0.0000 R=    0.0000 C=    0.0000
 XYZ=    8.3867   -7.2648   -1.7468 Q=    0.4100 A=    0.0000 R=    0.0000 C=    0.0000
 XYZ=    8.2073   -6.1171   -2.8944 Q=    0.4100 A=    0.0000 R=    0.0000 C=    0.0000
 XYZ=   -9.5993    4.9103    4.1085 Q=   -0.8200 A=    0.0000 R=    0.0000 C=    0.0000
 XYZ=   -9.5292    4.3455    3.2863 Q=    0.4100 A=    0.0000 R=    0.0000 C=    0.0000
 XYZ=   -8.7552    5.4335    4.2264 Q=    0.4100 A=    0.0000 R=    0.0000 C=    0.0000
 XYZ=    1.1966   -1.8626   10.8765 Q=   -0.8200 A=    0.0000 R=    0.0000 C=    0.0000
 XYZ=    0.8553   -2.4431   10.1372 Q=    0.4100 A=    0.0000 R=    0.0000 C=    0.0000
 XYZ=    0.4588   -1.2726   11.2046 Q=    0.4100 A=    0.0000 R=    0.0000 C=    0.0000
 XYZ=    8.2822    3.2786    5.6936 Q=   -0.8200 A=    0.0000 R=    0.0000 C=    0.0000
 XYZ=    8.7757    3.5779    4.8769 Q=    0.4100 A=    0.0000 R=    0.0000 C=    0.0000
 XYZ=    8.8798    3.3569    6.4916 Q=    0.4100 A=    0.0000 R=    0.0000 C=    0.0000
 XYZ=   -5.8657   -2.0352   -9.5588 Q=   -0.8200 A=    0.0000 R=    0.0000 C=    0.0000
 XYZ=   -6.7986   -1.6751   -9.5452 Q=    0.4100 A=    0.0000 R=    0.0000 C=    0.0000
 XYZ=   -5.8138   -2.8021  -10.1985 Q=    0.4100 A=    0.0000 R=    0.0000 C=    0.0000
 XYZ=   -3.9552   10.6120   -6.1655 Q=   -0.8200 A=    0.0000 R=    0.0000 C=    0.0000
 XYZ=   -3.4362    9.9924   -5.5766 Q=    0.4100 A=    0.0000 R=    0.0000 C=    0.0000
 XYZ=   -3.3678   10.9375   -6.9065 Q=    0.4100 A=    0.0000 R=    0.0000 C=    0.0000
 XYZ=    9.9754   -0.6415   -3.1519 Q=   -0.8200 A=    0.0000 R=    0.0000 C=    0.0000
 XYZ=    9.6587    0.1909   -2.6970 Q=    0.4100 A=    0.0000 R=    0.0000 C=    0.0000
 XYZ=   10.7413   -1.0303   -2.6397 Q=    0.4100 A=    0.0000 R=    0.0000 C=    0.0000
 XYZ=    0.2069    4.7243   10.5669 Q=   -0.8200 A=    0.0000 R=    0.0000 C=    0.0000
 XYZ=    0.3900    5.5093   11.1587 Q=    0.4100 A=    0.0000 R=    0.0000 C=    0.0000
 XYZ=   -0.6099    4.9035   10.0186 Q=    0.4100 A=    0.0000 R=    0.0000 C=    0.0000
 XYZ=    4.2178    2.0177   -9.5375 Q=   -0.8200 A=    0.0000 R=    0.0000 C=    0.0000
 XYZ=    5.2146    1.9625   -9.5951 Q=    0.4100 A=    0.0000 R=    0.0000 C=    0.0000
 XYZ=    3.8130    1.5856  -10.3434 Q=    0.4100 A=    0.0000 R=    0.0000 C=    0.0000
 XYZ=    4.9204   -0.1748   10.4612 Q=   -0.8200 A=    0.0000 R=    0.0000 C=    0.0000
 XYZ=    4.9177   -0.3173    9.4714 Q=    0.4100 A=    0.0000 R=    0.0000 C=    0.0000
 XYZ=    5.7553    0.3077   10.7262 Q=    0.4100 A=    0.0000 R=    0.0000 C=    0.0000
 XYZ=   -2.5477  -11.2462   -3.0411 Q=   -0.8200 A=    0.0000 R=    0.0000 C=    0.0000
 XYZ=   -2.0485  -11.6239   -3.8209 Q=    0.4100 A=    0.0000 R=    0.0000 C=    0.0000
 XYZ=   -3.2018  -10.5620   -3.3638 Q=    0.4100 A=    0.0000 R=    0.0000 C=    0.0000
 XYZ=    8.0030    7.9043   -0.1065 Q=   -0.8200 A=    0.0000 R=    0.0000 C=    0.0000
 XYZ=    8.3476    8.7721    0.2517 Q=    0.4100 A=    0.0000 R=    0.0000 C=    0.0000
 XYZ=    7.9888    7.2235    0.6259 Q=    0.4100 A=    0.0000 R=    0.0000 C=    0.0000
 XYZ=    4.2274   -6.6893   -8.1523 Q=   -0.8200 A=    0.0000 R=    0.0000 C=    0.0000
 XYZ=    4.9025   -6.0502   -8.5206 Q=    0.4100 A=    0.0000 R=    0.0000 C=    0.0000
 XYZ=    4.6569   -7.2620   -7.4540 Q=    0.4100 A=    0.0000 R=    0.0000 C=    0.0000
 XYZ=   -6.1221    1.9464    8.7780 Q=   -0.8200 A=    0.0000 R=    0.0000 C=    0.0000
 XYZ=   -6.6404    1.5546    8.0177 Q=    0.4100 A=    0.0000 R=    0.0000 C=    0.0000
 XYZ=   -5.8144    1.2131    9.3844 Q=    0.4100 A=    0.0000 R=    0.0000 C=    0.0000
 XYZ=   -1.4729    1.2571   11.2807 Q=   -0.8200 A=    0.0000 R=    0.0000 C=    0.0000
 XYZ=   -2.3577    1.6572   11.0418 Q=    0.4100 A=    0.0000 R=    0.0000 C=    0.0000
 XYZ=   -0.7536    1.6903   10.7376 Q=    0.4100 A=    0.0000 R=    0.0000 C=    0.0000
 XYZ=    0.7362   12.9116   -1.5097 Q=   -0.8200 A=    0.0000 R=    0.0000 C=    0.0000
 XYZ=    1.0994   11.9977   -1.3283 Q=    0.4100 A=    0.0000 R=    0.0000 C=    0.0000
 XYZ=   -0.1202   13.0355   -1.0083 Q=    0.4100 A=    0.0000 R=    0.0000 C=    0.0000
 XYZ=   -1.8107   -4.1615    9.6688 Q=   -0.8200 A=    0.0000 R=    0.0000 C=    0.0000
 XYZ=   -1.7363   -5.0779   10.0622 Q=    0.4100 A=    0.0000 R=    0.0000 C=    0.0000
 XYZ=   -1.8623   -3.4862   10.4045 Q=    0.4100 A=    0.0000 R=    0.0000 C=    0.0000
 XYZ=   -7.7327    3.3725   -9.1651 Q=   -0.8200 A=    0.0000 R=    0.0000 C=    0.0000
 XYZ=   -8.0282    4.2432   -9.5584 Q=    0.4100 A=    0.0000 R=    0.0000 C=    0.0000
 XYZ=   -6.7352    3.3598   -9.0953 Q=    0.4100 A=    0.0000 R=    0.0000 C=    0.0000
 XYZ=   -3.7862   -7.1948   -9.3134 Q=   -0.8200 A=    0.0000 R=    0.0000 C=    0.0000
 XYZ=   -3.0383   -7.6985   -9.7457 Q=    0.4100 A=    0.0000 R=    0.0000 C=    0.0000
 XYZ=   -3.6263   -7.1415   -8.3277 Q=    0.4100 A=    0.0000 R=    0.0000 C=    0.0000
 XYZ=    1.5021   -0.3795  -11.6433 Q=   -0.8200 A=    0.0000 R=    0.0000 C=    0.0000
 XYZ=    2.0906   -1.1881  -11.6462 Q=    0.4100 A=    0.0000 R=    0.0000 C=    0.0000
 XYZ=    0.6243   -0.6077  -11.2220 Q=    0.4100 A=    0.0000 R=    0.0000 C=    0.0000
 XYZ=   -8.6535   -4.3390    3.6349 Q=   -0.8200 A=    0.0000 R=    0.0000 C=    0.0000
 XYZ=   -8.2747   -5.1533    3.1949 Q=    0.4100 A=    0.0000 R=    0.0000 C=    0.0000
 XYZ=   -9.3139   -4.6145    4.3335 Q=    0.4100 A=    0.0000 R=    0.0000 C=    0.0000
 XYZ=    0.5352   -7.7234    8.9901 Q=   -0.8200 A=    0.0000 R=    0.0000 C=    0.0000
 XYZ=    0.0251   -7.4651    8.1697 Q=    0.4100 A=    0.0000 R=    0.0000 C=    0.0000
 XYZ=    1.3396   -7.1362    9.0810 Q=    0.4100 A=    0.0000 R=    0.0000 C=    0.0000
 XYZ=   -4.2415   11.6674    2.2316 Q=   -0.8200 A=    0.0000 R=    0.0000 C=    0.0000
 XYZ=   -4.8463   11.4138    1.4767 Q=    0.4100 A=    0.0000 R=    0.0000 C=    0.0000
 XYZ=   -4.7369   12.2530    2.8732 Q=    0.4100 A=    0.0000 R=    0.0000 C=    0.0000
 XYZ=   -0.5312  -10.0576   -7.7629 Q=   -0.8200 A=    0.0000 R=    0.0000 C=    0.0000
 XYZ=   -0.5942   -9.0695   -7.6228 Q=    0.4100 A=    0.0000 R=    0.0000 C=    0.0000
 XYZ=   -0.9290  -10.2946   -8.6493 Q=    0.4100 A=    0.0000 R=    0.0000 C=    0.0000
 XYZ=   -3.9743   -6.8070    7.3240 Q=   -0.8200 A=    0.0000 R=    0.0000 C=    0.0000
 XYZ=   -4.0719   -7.2698    8.2051 Q=    0.4100 A=    0.0000 R=    0.0000 C=    0.0000
 XYZ=   -4.8780   -6.5534    6.9788 Q=    0.4100 A=    0.0000 R=    0.0000 C=    0.0000
 XYZ=  -11.5013    1.5927    2.2053 Q=   -0.8200 A=    0.0000 R=    0.0000 C=    0.0000
 XYZ=  -11.4336    2.1970    2.9992 Q=    0.4100 A=    0.0000 R=    0.0000 C=    0.0000
 XYZ=  -10.5835    1.3709    1.8760 Q=    0.4100 A=    0.0000 R=    0.0000 C=    0.0000
 XYZ=   -2.1624    2.8158  -12.2119 Q=   -0.8200 A=    0.0000 R=    0.0000 C=    0.0000
 XYZ=   -2.1257    2.9010  -11.2162 Q=    0.4100 A=    0.0000 R=    0.0000 C=    0.0000
 XYZ=   -2.1392    1.8486  -12.4647 Q=    0.4100 A=    0.0000 R=    0.0000 C=    0.0000
 XYZ=    5.8290   -5.2952   -9.0022 Q=   -0.8200 A=    0.0000 R=    0.0000 C=    0.0000
 XYZ=    6.5848   -5.3759   -9.6520 Q=    0.4100 A=    0.0000 R=    0.0000 C=    0.0000
 XYZ=    6.0883   -4.6712   -8.2651 Q=    0.4100 A=    0.0000 R=    0.0000 C=    0.0000
 XYZ=   -2.3087    5.9184   -9.8673 Q=   -0.8200 A=    0.0000 R=    0.0000 C=    0.0000
 XYZ=   -2.2557    6.9051  -10.0211 Q=    0.4100 A=    0.0000 R=    0.0000 C=    0.0000
 XYZ=   -3.2573    5.6168   -9.9625 Q=    0.4100 A=    0.0000 R=    0.0000 C=    0.0000
 XYZ=   -3.8495  -10.5410    2.2754 Q=   -0.8200 A=    0.0000 R=    0.0000 C=    0.0000
 XYZ=   -4.4871  -11.3112    2.2579 Q=    0.4100 A=    0.0000 R=    0.0000 C=    0.0000
 XYZ=   -2.9755  -10.8229    1.8797 Q=    0.4100 A=    0.0000 R=    0.0000 C=    0.0000
 XYZ=   -6.2794   -5.7630    6.8501 Q=   -0.8200 A=    0.0000 R=    0.0000 C=    0.0000
 XYZ=   -6.3814   -5.7959    5.8558 Q=    0.4100 A=    0.0000 R=    0.0000 C=    0.0000
 XYZ=   -6.8123   -4.9994    7.2147 Q=    0.4100 A=    0.0000 R=    0.0000 C=    0.0000
 XYZ=    9.0026    7.2564    3.3997 Q=   -0.8200 A=    0.0000 R=    0.0000 C=    0.0000
 XYZ=    9.8214    6.7571    3.6829 Q=    0.4100 A=    0.0000 R=    0.0000 C=    0.0000
 XYZ=    8.5022    6.7185    2.7212 Q=    0.4100 A=    0.0000 R=    0.0000 C=    0.0000
 XYZ=   -3.4906    2.1838   10.7987 Q=   -0.8200 A=    0.0000 R=    0.0000 C=    0.0000
 XYZ=   -3.9052    2.3851   11.6862 Q=    0.4100 A=    0.0000 R=    0.0000 C=    0.0000
 XYZ=   -3.5579    2.9886   10.2091 Q=    0.4100 A=    0.0000 R=    0.0000 C=    0.0000
 XYZ=   -1.1983   13.2270   -0.3682 Q=   -0.8200 A=    0.0000 R=    0.0000 C=    0.0000
 XYZ=   -1.6226   12.5707    0.2558 Q=    0.4100 A=    0.0000 R=    0.0000 C=    0.0000
 XYZ=   -1.8694   13.9210   -0.6288 Q=    0.4100 A=    0.0000 R=    0.0000 C=    0.0000
 XYZ=   -8.1778   -9.0796   -0.8900 Q=   -0.8200 A=    0.0000 R=    0.0000 C=    0.0000
 XYZ=   -8.6331   -8.1983   -1.0173 Q=    0.4100 A=    0.0000 R=    0.0000 C=    0.0000
 XYZ=   -7.1902   -8.9377   -0.8220 Q=    0.4100 A=    0.0000 R=    0.0000 C=    0.0000
 XYZ=    2.5499   -7.6476   -9.5325 Q=   -0.8200 A=    0.0000 R=    0.0000 C=    0.0000
 XYZ=    1.6636   -7.2232   -9.3470 Q=    0.4100 A=    0.0000 R=    0.0000 C=    0.0000
 XYZ=    3.2203   -7.3250   -8.8642 Q=    0.4100 A=    0.0000 R=    0.0000 C=    0.0000
 XYZ=    6.5500    5.2667   -6.5473 Q=   -0.8200 A=    0.0000 R=    0.0000 C=    0.0000
 XYZ=    7.1766    6.0459   -6.5353 Q=    0.4100 A=    0.0000 R=    0.0000 C=    0.0000
 XYZ=    6.9234    4.5477   -7.1336 Q=    0.4100 A=    0.0000 R=    0.0000 C=    0.0000
 XYZ=   10.3807    3.4122   -2.1593 Q=   -0.8200 A=    0.0000 R=    0.0000 C=    0.0000
 XYZ=    9.8868    2.5454   -2.0904 Q=    0.4100 A=    0.0000 R=    0.0000 C=    0.0000
 XYZ=   10.7838    3.6375   -1.2723 Q=    0.4100 A=    0.0000 R=    0.0000 C=    0.0000
 XYZ=  -11.8407   -1.5257   -1.4621 Q=   -0.8200 A=    0.0000 R=    0.0000 C=    0.0000
 XYZ=  -11.2030   -0.9734   -1.9990 Q=    0.4100 A=    0.0000 R=    0.0000 C=    0.0000
 XYZ=  -11.4705   -1.6633   -0.5433 Q=    0.4100 A=    0.0000 R=    0.0000 C=    0.0000
 XYZ=    0.1061  -11.4406   -6.1350 Q=   -0.8200 A=    0.0000 R=    0.0000 C=    0.0000
 XYZ=    0.6134  -10.8458   -5.5115 Q=    0.4100 A=    0.0000 R=    0.0000 C=    0.0000
 XYZ=   -0.2081  -10.9087   -6.9213 Q=    0.4100 A=    0.0000 R=    0.0000 C=    0.0000
 XYZ=   -2.1646   11.1492    5.1018 Q=   -0.8200 A=    0.0000 R=    0.0000 C=    0.0000
 XYZ=   -1.6153   10.8948    5.8979 Q=    0.4100 A=    0.0000 R=    0.0000 C=    0.0000
 XYZ=   -3.0505   11.4992    5.4063 Q=    0.4100 A=    0.0000 R=    0.0000 C=    0.0000
 XYZ=   -8.9652   -6.7391   -1.0981 Q=   -0.8200 A=    0.0000 R=    0.0000 C=    0.0000
 XYZ=   -9.2207   -6.5268   -2.0413 Q=    0.4100 A=    0.0000 R=    0.0000 C=    0.0000
 XYZ=   -9.6952   -6.4453   -0.4809 Q=    0.4100 A=    0.0000 R=    0.0000 C=    0.0000
 XYZ=    2.4324   -6.3066    9.3595 Q=   -0.8200 A=    0.0000 R=    0.0000 C=    0.0000
 XYZ=    3.3728   -6.6452    9.3913 Q=    0.4100 A=    0.0000 R=    0.0000 C=    0.0000
 XYZ=    2.1552   -6.0064   10.2723 Q=    0.4100 A=    0.0000 R=    0.0000 C=    0.0000
 XYZ=  -11.3125   -1.4703   -4.7474 Q=   -0.8200 A=    0.0000 R=    0.0000 C=    0.0000
 XYZ=  -11.0135   -1.1354   -5.6410 Q=    0.4100 A=    0.0000 R=    0.0000 C=    0.0000
 XYZ=  -11.0529   -0.8120   -4.0409 Q=    0.4100 A=    0.0000 R=    0.0000 C=    0.0000
 XYZ=    4.2976    6.1800    9.9575 Q=   -0.8200 A=    0.0000 R=    0.0000 C=    0.0000
 XYZ=    3.5253    5.5466    9.9081 Q=    0.4100 A=    0.0000 R=    0.0000 C=    0.0000
 XYZ=    4.6488    6.3498    9.0367 Q=    0.4100 A=    0.0000 R=    0.0000 C=    0.0000
 XYZ=   -4.4399    4.9809  -10.2669 Q=   -0.8200 A=    0.0000 R=    0.0000 C=    0.0000
 XYZ=   -4.9190    5.7930  -10.5999 Q=    0.4100 A=    0.0000 R=    0.0000 C=    0.0000
 XYZ=   -4.4510    4.2740  -10.9742 Q=    0.4100 A=    0.0000 R=    0.0000 C=    0.0000
 XYZ=   -4.3454   -9.9604    4.6441 Q=   -0.8200 A=    0.0000 R=    0.0000 C=    0.0000
 XYZ=   -3.8404  -10.2291    3.8239 Q=    0.4100 A=    0.0000 R=    0.0000 C=    0.0000
 XYZ=   -3.8609   -9.2169    5.1052 Q=    0.4100 A=    0.0000 R=    0.0000 C=    0.0000
 XYZ=    5.0924   -1.9645  -10.8775 Q=   -0.8200 A=    0.0000 R=    0.0000 C=    0.0000
 XYZ=    5.2357   -1.6634   -9.9347 Q=    0.4100 A=    0.0000 R=    0.0000 C=    0.0000
 XYZ=    5.7808   -2.6491  -11.1170 Q=    0.4100 A=    0.0000 R=    0.0000 C=    0.0000
 XYZ=    7.5816   -0.1717   -8.9006 Q=   -0.8200 A=    0.0000 R=    0.0000 C=    0.0000
 XYZ=    7.9434    0.1645   -8.0310 Q=    0.4100 A=    0.0000 R=    0.0000 C=    0.0000
 XYZ=    6.8343   -0.8126   -8.7251 Q=    0.4100 A=    0.0000 R=    0.0000 C=    0.0000
 XYZ=   -5.7601    7.1428    7.7666 Q=   -0.8200 A=    0.0000 R=    0.0000 C=    0.0000
 XYZ=   -6.7019    7.2841    8.0719 Q=    0.4100 A=    0.0000 R=    0.0000 C=    0.0000
 XYZ=   -5.1478    7.7361    8.2891 Q=    0.4100 A=    0.0000 R=    0.0000 C=    0.0000
 XYZ=   -1.8304    0.3828  -12.4841 Q=   -0.8200 A=    0.0000 R=    0.0000 C=    0.0000
 XYZ=   -1.2972   -0.3259  -12.0221 Q=    0.4100 A=    0.0000 R=    0.0000 C=    0.0000
 XYZ=   -2.8009    0.1439  -12.4522 Q=    0.4100 A=    0.0000 R=    0.0000 C=    0.0000
 XYZ=   -6.7024   11.0935   -1.3810 Q=   -0.8200 A=    0.0000 R=    0.0000 C=    0.0000
 XYZ=   -7.4829   11.0055   -1.9999 Q=    0.4100 A=    0.0000 R=    0.0000 C=    0.0000
 XYZ=   -6.0512   11.7526   -1.7574 Q=    0.4100 A=    0.0000 R=    0.0000 C=    0.0000
 XYZ=   -1.1275    9.2424    9.0937 Q=   -0.8200 A=    0.0000 R=    0.0000 C=    0.0000
 XYZ=   -1.5333    8.4071    8.7227 Q=    0.4100 A=    0.0000 R=    0.0000 C=    0.0000
 XYZ=   -0.1782    9.0648    9.3532 Q=    0.4100 A=    0.0000 R=    0.0000 C=    0.0000
 XYZ=  -10.8466   -0.2477   -6.7885 Q=   -0.8200 A=    0.0000 R=    0.0000 C=    0.0000
 XYZ=  -10.3588    0.5948   -6.5598 Q=    0.4100 A=    0.0000 R=    0.0000 C=    0.0000
 XYZ=  -11.8278   -0.0614   -6.8391 Q=    0.4100 A=    0.0000 R=    0.0000 C=    0.0000
 XYZ=  -10.4665    2.1303   -6.0460 Q=   -0.8200 A=    0.0000 R=    0.0000 C=    0.0000
 XYZ=  -11.3472    2.2653   -5.5918 Q=    0.4100 A=    0.0000 R=    0.0000 C=    0.0000
 XYZ=  -10.4912    2.5515   -6.9527 Q=    0.4100 A=    0.0000 R=    0.0000 C=    0.0000
 XYZ=  -10.3126   -4.1394    1.5975 Q=   -0.8200 A=    0.0000 R=    0.0000 C=    0.0000
 XYZ=   -9.6782   -4.2579    2.3614 Q=    0.4100 A=    0.0000 R=    0.0000 C=    0.0000
 XYZ=  -10.2672   -4.9396    0.9994 Q=    0.4100 A=    0.0000 R=    0.0000 C=    0.0000
 XYZ=   -7.3618   -9.8133    2.5344 Q=   -0.8200 A=    0.0000 R=    0.0000 C=    0.0000
 XYZ=   -7.2008  -10.4556    3.2837 Q=    0.4100 A=    0.0000 R=    0.0000 C=    0.0000
 XYZ=   -6.5375   -9.2688    2.3792 Q=    0.4100 A=    0.0000 R=    0.0000 C=    0.0000
 XYZ=   11.4941   -1.3837   -1.4228 Q=   -0.8200 A=    0.0000 R=    0.0000 C=    0.0000
 XYZ=   11.5951   -2.3258   -1.1030 Q=    0.4100 A=    0.0000 R=    0.0000 C=    0.0000
 XYZ=   11.1880   -0.8059   -0.6662 Q=    0.4100 A=    0.0000 R=    0.0000 C=    0.0000
 XYZ=    0.2220   13.2112    2.2520 Q=   -0.8200 A=    0.0000 R=    0.0000 C=    0.0000
 XYZ=   -0.4452   13.4145    1.5353 Q=    0.4100 A=    0.0000 R=    0.0000 C=    0.0000
 XYZ=    0.9438   12.6278    1.8796 Q=    0.4100 A=    0.0000 R=    0.0000 C=    0.0000
 XYZ=    3.8643   12.6344    1.5768 Q=   -0.8200 A=    0.0000 R=    0.0000 C=    0.0000
 XYZ=    3.0440   12.0689    1.6632 Q=    0.4100 A=    0.0000 R=    0.0000 C=    0.0000
 XYZ=    3.6055   13.6003    1.5844 Q=    0.4100 A=    0.0000 R=    0.0000 C=    0.0000
 XYZ=   11.9798   -3.4156    0.3438 Q=   -0.8200 A=    0.0000 R=    0.0000 C=    0.0000
 XYZ=   10.9919   -3.5689    0.3206 Q=    0.4100 A=    0.0000 R=    0.0000 C=    0.0000
 XYZ=   12.4407   -4.1319   -0.1802 Q=    0.4100 A=    0.0000 R=    0.0000 C=    0.0000
 XYZ=    8.9344    7.3174   -2.4381 Q=   -0.8200 A=    0.0000 R=    0.0000 C=    0.0000
 XYZ=    8.3166    7.7743   -3.0781 Q=    0.4100 A=    0.0000 R=    0.0000 C=    0.0000
 XYZ=    8.5506    7.3612   -1.5157 Q=    0.4100 A=    0.0000 R=    0.0000 C=    0.0000
 XYZ=   -9.4951    1.9971    7.3696 Q=   -0.8200 A=    0.0000 R=    0.0000 C=    0.0000
 XYZ=   -9.5569    2.8178    7.9377 Q=    0.4100 A=    0.0000 R=    0.0000 C=    0.0000
 XYZ=   -8.5494    1.8690    7.0708 Q=    0.4100 A=    0.0000 R=    0.0000 C=    0.0000
 XYZ=   -7.8144   -7.0772   -5.9409 Q=   -0.8200 A=    0.0000 R=    0.0000 C=    0.0000
 XYZ=   -7.2276   -7.8495   -5.6974 Q=    0.4100 A=    0.0000 R=    0.0000 C=    0.0000
 XYZ=   -8.7424   -7.4060   -6.1163 Q=    0.4100 A=    0.0000 R=    0.0000 C=    0.0000
 XYZ=    3.1966    1.3387  -11.5248 Q=   -0.8200 A=    0.0000 R=    0.0000 C=    0.0000
 XYZ=    2.6465    2.1139  -11.8355 Q=    0.4100 A=    0.0000 R=    0.0000 C=    0.0000
 XYZ=    2.6317    0.5137  -11.5102 Q=    0.4100 A=    0.0000 R=    0.0000 C=    0.0000
 XYZ=   -5.2219    0.4578   10.4003 Q=   -0.8200 A=    0.0000 R=    0.0000 C=    0.0000
 XYZ=   -4.4582    1.0850   10.5534 Q=    0.4100 A=    0.0000 R=    0.0000 C=    0.0000
 XYZ=   -5.9539    0.6588   11.0514 Q=    0.4100 A=    0.0000 R=    0.0000 C=    0.0000
 XYZ=    8.4635    0.8090   -6.8037 Q=   -0.8200 A=    0.0000 R=    0.0000 C=    0.0000
 XYZ=    8.7394    1.7655   -6.7082 Q=    0.4100 A=    0.0000 R=    0.0000 C=    0.0000
 XYZ=    9.2755    0.2253   -6.7932 Q=    0.4100 A=    0.0000 R=    0.0000 C=    0.0000
 XYZ=    9.2717    4.9422   -3.3545 Q=   -0.8200 A=    0.0000 R=    0.0000 C=    0.0000
 XYZ=    9.6696    4.2395   -2.7646 Q=    0.4100 A=    0.0000 R=    0.0000 C=    0.0000
 XYZ=    9.1816    5.7960   -2.8417 Q=    0.4100 A=    0.0000 R=    0.0000 C=    0.0000
 XYZ=   -0.6975   -0.8480   11.7594 Q=   -0.8200 A=    0.0000 R=    0.0000 C=    0.0000
 XYZ=   -0.6891   -0.8967   12.7582 Q=    0.4100 A=    0.0000 R=    0.0000 C=    0.0000
 XYZ=   -1.0707    0.0341   11.4718 Q=    0.4100 A=    0.0000 R=    0.0000 C=    0.0000
 XYZ=   10.9131   -4.3653    5.2274 Q=   -0.8200 A=    0.0000 R=    0.0000 C=    0.0000
 XYZ=    9.9929   -4.0090    5.0653 Q=    0.4100 A=    0.0000 R=    0.0000 C=    0.0000
 XYZ=   10.9889   -4.6737    6.1757 Q=    0.4100 A=    0.0000 R=    0.0000 C=    0.0000
 XYZ=   -0.4079   -6.7746  -11.3231 Q=   -0.8200 A=    0.0000 R=    0.0000 C=    0.0000
 XYZ=   -1.1114   -6.0961  -11.5348 Q=    0.4100 A=    0.0000 R=    0.0000 C=    0.0000
 XYZ=   -0.0150   -6.5780  -10.4248 Q=    0.4100 A=    0.0000 R=    0.0000 C=    0.0000
[...]
    39  O    0.000000   0.000000   0.000000   0.000000   0.000000   0.000000
    40  H    0.000000   0.000000   0.000000   0.000000   0.000000   0.000000
    41  H    0.000000   0.000000   0.000000   0.000000   0.000000   0.000000
    42  O   -0.000128   0.002330   0.000000   0.000000   0.000000   0.000146
    43  H   -0.000155  -0.000152   0.000000   0.000000   0.000000   0.000028
    44  H   -0.000007  -0.000279   0.000000   0.000000   0.000000  -0.000007
    45  O    0.000006   0.000008   0.000000   0.000000   0.000000  -0.000006
    46  H    0.000000   0.000000   0.000000   0.000000   0.000000   0.000000
    47  H   -0.000003  -0.000001   0.000000   0.000000   0.000000   0.000000
    48  O    0.000000   0.000000   0.000225   0.000746   0.000000   0.000000
    49  H    0.000000   0.000000   0.000002   0.000001   0.000000   0.000000
    50  H    0.000000   0.000000  -0.000029  -0.000030   0.000000   0.000000
              31         32         33         34         35         36
     1  C    0.000001  -0.000077  -0.000572   0.000061   0.000014   0.000395
     2  H    0.000000  -0.000001   0.000000   0.000000   0.000000   0.000000
     3  H    0.000000   0.000000   0.000000   0.000000   0.000000  -0.000013
     4  C   -0.000083   0.000292   0.000725  -0.000319   0.000085   0.001279
     5  H    0.000000   0.000000   0.000003   0.000000   0.000000  -0.000024
     6  C   -0.000245  -0.000622  -0.000526   0.000207  -0.000086  -0.000842
     7  H    0.000002  -0.000001   0.000000   0.000000   0.000000   0.000000
     8  O    0.000082   0.005659   0.000010  -0.000001   0.000000   0.000003
     9  O    0.008615  -0.004817   0.000003  -0.000001   0.000000   0.000000
    10  H   -0.000427  -0.001303  -0.000001   0.000000   0.000000   0.000000
    11  H   -0.000920   0.003714   0.000000   0.000000   0.000000   0.000000
    12  O    0.000124   0.000378   0.000000   0.000000   0.000000   0.000000
    13  H    0.000000  -0.000010   0.000000   0.000000   0.000000   0.000000
    14  H    0.000000   0.000015   0.000000   0.000000   0.000000   0.000000
    15  O    0.000000   0.000000  -0.000457   0.000035   0.000022  -0.001699
    16  H    0.000000   0.000000   0.000002   0.000000   0.000000  -0.000010
    17  H    0.000000   0.000000   0.000325   0.000001  -0.000008  -0.000560
    18  O    0.000000   0.000000  -0.051415   0.003529   0.002314  -0.049746
    19  H    0.000000   0.000000   0.000218  -0.000157  -0.000022   0.018821
    20  H    0.000000   0.000000   0.036712  -0.000931  -0.000612  -0.004428
    21  O   -0.000146  -0.000045   0.000001  -0.000001   0.000000  -0.000001
    22  H    0.000000  -0.000001   0.000000   0.000000   0.000000   0.000000
    23  H   -0.000122  -0.000015  -0.000001   0.000000   0.000000   0.000000
    24  O    0.001060   0.058517   0.000000   0.000000   0.000000   0.000000
    25  H   -0.000038  -0.001511   0.000000   0.000000   0.000000   0.000000
    26  H   -0.000045  -0.000796   0.000000   0.000000   0.000000   0.000000
    27  O   -0.000002   0.000000  -0.000055  -0.000006   0.000001  -0.000039
    28  H    0.000000   0.000000  -0.000056  -0.000001   0.000001   0.000008
    29  H    0.000000   0.000000   0.000000   0.000000   0.000000   0.000000
    30  O    0.206088   0.127478   0.000000   0.000000   0.000000   0.000000
    31  H    0.198021  -0.001517   0.000000   0.000000   0.000000   0.000000
    32  H   -0.001517   0.200055   0.000000   0.000000   0.000000   0.000000
    33  O    0.000000   0.000000   8.808376   0.174384   0.221271  -0.002968
    34  H    0.000000   0.000000   0.174384   0.218906  -0.008594   0.000328
    35  H    0.000000   0.000000   0.221271  -0.008594   0.270820  -0.000001
    36  O    0.000000   0.000000  -0.002968   0.000328  -0.000001   8.772672
    37  H    0.000000   0.000000  -0.000038   0.000029   0.000001   0.213878
    38  H    0.000000   0.000000   0.000035  -0.000017   0.000000   0.209973
    39  O    0.000000   0.000000   0.000362  -0.000039  -0.000034  -0.003047
    40  H    0.000000   0.000000   0.001216   0.000019  -0.000009  -0.000550
    41  H    0.000000   0.000000  -0.000080   0.000003   0.000000   0.000027
    42  O   -0.000002   0.000020   0.000000   0.000000   0.000000   0.000000
    43  H    0.000000   0.000007   0.000000   0.000000   0.000000   0.000000
    44  H    0.000000   0.000001   0.000000   0.000000   0.000000   0.000000
    45  O    0.000000   0.000001   0.000001   0.000000   0.000000   0.000000
    46  H    0.000000   0.000000   0.000000   0.000000   0.000000   0.000000
    47  H    0.000000   0.000000   0.000000   0.000000   0.000000   0.000000
    48  O    0.000000   0.000000  -0.076326   0.045758   0.000221  -0.005647
    49  H    0.000000   0.000000  -0.000002  -0.005511   0.000104  -0.002085
    50  H    0.000000   0.000000  -0.000829  -0.001278  -0.000133   0.000390
              37         38         39         40         41         42
     1  C   -0.000099   0.000193  -0.001543  -0.000033   0.000047  -0.000342
     2  H    0.000000   0.000000   0.000000   0.000000   0.000000  -0.000001
     3  H    0.000000   0.000000   0.000005  -0.000001   0.000000   0.000000
     4  C   -0.000039   0.000089   0.001320   0.000097  -0.000041   0.000881
     5  H    0.000001  -0.000004   0.000002   0.000000   0.000000   0.000000
     6  C    0.000087  -0.000192  -0.000118   0.000008   0.000003  -0.000960
     7  H    0.000000   0.000000   0.000000   0.000000   0.000000   0.000000
     8  O    0.000000   0.000000   0.000000   0.000000   0.000000   0.000309
     9  O    0.000000   0.000000   0.000000   0.000000   0.000000  -0.000086
    10  H    0.000000   0.000000   0.000000   0.000000   0.000000  -0.000010
    11  H    0.000000   0.000000   0.000000   0.000000   0.000000   0.000002
    12  O    0.000000   0.000000   0.000000   0.000000   0.000000  -0.036350
    13  H    0.000000   0.000000   0.000000   0.000000   0.000000   0.001386
    14  H    0.000000   0.000000   0.000000   0.000000   0.000000  -0.001596
    15  O    0.000063   0.000006  -0.004360   0.002320  -0.001283   0.000000
    16  H    0.000000   0.000000  -0.001888   0.000674  -0.000116   0.000000
    17  H    0.000003   0.000001  -0.003451  -0.000476   0.000068   0.000000
    18  O    0.007818  -0.000174  -0.175836   0.012741   0.004729   0.000000
    19  H   -0.004654   0.000931   0.008213   0.001670  -0.000246   0.000000
    20  H   -0.000116  -0.000013   0.003243   0.000335  -0.000417   0.000000
    21  O    0.000000   0.000000   0.000000   0.000000   0.000000   0.000004
    22  H    0.000000   0.000000   0.000000   0.000000   0.000000   0.000000
    23  H    0.000000   0.000000   0.000000   0.000000   0.000000   0.000000
    24  O    0.000000   0.000000   0.000000   0.000000   0.000000  -0.007435
    25  H    0.000000   0.000000   0.000000   0.000000   0.000000  -0.000128
    26  H    0.000000   0.000000   0.000000   0.000000   0.000000   0.002330
    27  O    0.000001   0.000001   0.000000   0.000000   0.000000   0.000000
    28  H    0.000000  -0.000001   0.000000   0.000000   0.000000   0.000000
    29  H    0.000000   0.000000   0.000000   0.000000   0.000000   0.000000
    30  O    0.000000   0.000000   0.000000   0.000000   0.000000   0.000146
    31  H    0.000000   0.000000   0.000000   0.000000   0.000000  -0.000002
    32  H    0.000000   0.000000   0.000000   0.000000   0.000000   0.000020
    33  O   -0.000038   0.000035   0.000362   0.001216  -0.000080   0.000000
    34  H    0.000029  -0.000017  -0.000039   0.000019   0.000003   0.000000
    35  H    0.000001   0.000000  -0.000034  -0.000009   0.000000   0.000000
    36  O    0.213878   0.209973  -0.003047  -0.000550   0.000027   0.000000
    37  H    0.191780  -0.007107  -0.001307  -0.000344  -0.000001   0.000000
    38  H   -0.007107   0.175046   0.000015   0.000000   0.000000   0.000000
    39  O   -0.001307   0.000015   9.120214   0.166327   0.198580   0.000000
    40  H   -0.000344   0.000000   0.166327   0.216391  -0.005965   0.000000
    41  H   -0.000001   0.000000   0.198580  -0.005965   0.181651   0.000000
    42  O    0.000000   0.000000   0.000000   0.000000   0.000000   8.905427
    43  H    0.000000   0.000000   0.000000   0.000000   0.000000   0.177892
    44  H    0.000000   0.000000   0.000000   0.000000   0.000000   0.208150
    45  O    0.000000   0.000000   0.000016  -0.000001   0.000000   0.000001
    46  H    0.000000   0.000000  -0.000002   0.000000   0.000000   0.000000
    47  H    0.000000   0.000000   0.000000   0.000000   0.000000  -0.000001
    48  O    0.001930   0.000628   0.000054  -0.000137  -0.000012   0.000000
    49  H    0.000694   0.000039   0.000011   0.000004   0.000000   0.000000
    50  H   -0.000037   0.000003  -0.000001   0.000000   0.000000   0.000000
              43         44         45         46         47         48
     1  C   -0.000051   0.000008   0.017929   0.001221   0.008249  -0.000100
     2  H   -0.000001   0.000000   0.000586  -0.000027   0.003613   0.000000
     3  H    0.000000   0.000000  -0.000082  -0.000003  -0.000129   0.000000
     4  C    0.000170  -0.000026  -0.016855  -0.001427  -0.004847  -0.000614
     5  H    0.000000   0.000000   0.000001   0.000000   0.000001  -0.000018
     6  C   -0.000191   0.000049   0.004716  -0.000605   0.003841   0.000991
     7  H    0.000000   0.000000   0.000000   0.000000   0.000000   0.000001
     8  O   -0.000003  -0.000004  -0.000662   0.000015  -0.000735  -0.000007
     9  O   -0.000032   0.000001  -0.000103   0.000001  -0.000039  -0.000004
    10  H    0.000004   0.000000   0.000014   0.000000   0.000006   0.000000
    11  H    0.000000   0.000000   0.000001   0.000000   0.000000   0.000000
    12  O   -0.003217   0.001080  -0.000059   0.000000  -0.000030   0.000000
    13  H   -0.000011   0.000086   0.000002   0.000000   0.000003   0.000000
    14  H    0.001523  -0.000112   0.000000   0.000000   0.000000   0.000000
    15  O    0.000000   0.000000   0.001568   0.001441  -0.000619   0.000080
    16  H    0.000000   0.000000   0.000122  -0.000014   0.000000  -0.000001
    17  H    0.000000   0.000000  -0.000010   0.000003   0.000001   0.000005
    18  O    0.000000   0.000000   0.000043  -0.000005  -0.000001   0.001041
    19  H    0.000000   0.000000   0.000000   0.000000   0.000000   0.001793
    20  H    0.000000   0.000000   0.000000   0.000000   0.000000   0.003831
    21  O    0.000001   0.000000   0.000000   0.000000   0.000000   0.000025
    22  H    0.000000   0.000000   0.000000   0.000000   0.000000   0.000000
    23  H    0.000000   0.000000   0.000000   0.000000   0.000000   0.000000
    24  O    0.000132  -0.000388  -0.000085  -0.000001   0.000043   0.000000
    25  H   -0.000155  -0.000007   0.000006   0.000000  -0.000003   0.000000
    26  H   -0.000152  -0.000279   0.000008   0.000000  -0.000001   0.000000
    27  O    0.000000   0.000000   0.000000   0.000000   0.000000   0.000225
    28  H    0.000000   0.000000   0.000000   0.000000   0.000000   0.000746
    29  H    0.000000   0.000000   0.000000   0.000000   0.000000   0.000000
    30  O    0.000028  -0.000007  -0.000006   0.000000   0.000000   0.000000
    31  H    0.000000   0.000000   0.000000   0.000000   0.000000   0.000000
    32  H    0.000007   0.000001   0.000001   0.000000   0.000000   0.000000
    33  O    0.000000   0.000000   0.000001   0.000000   0.000000  -0.076326
    34  H    0.000000   0.000000   0.000000   0.000000   0.000000   0.045758
    35  H    0.000000   0.000000   0.000000   0.000000   0.000000   0.000221
    36  O    0.000000   0.000000   0.000000   0.000000   0.000000  -0.005647
    37  H    0.000000   0.000000   0.000000   0.000000   0.000000   0.001930
    38  H    0.000000   0.000000   0.000000   0.000000   0.000000   0.000628
    39  O    0.000000   0.000000   0.000016  -0.000002   0.000000   0.000054
    40  H    0.000000   0.000000  -0.000001   0.000000   0.000000  -0.000137
    41  H    0.000000   0.000000   0.000000   0.000000   0.000000  -0.000012
    42  O    0.177892   0.208150   0.000001   0.000000  -0.000001   0.000000
    43  H    0.205244  -0.007421   0.000001   0.000000   0.000000   0.000000
    44  H   -0.007421   0.164253   0.000000   0.000000   0.000000   0.000000
    45  O    0.000001   0.000000   8.630571   0.213135   0.223783   0.000000
    46  H    0.000000   0.000000   0.213135   0.154791  -0.010002   0.000000
    47  H    0.000000   0.000000   0.223783  -0.010002   0.325264   0.000000
    48  O    0.000000   0.000000   0.000000   0.000000   0.000000   8.901715
    49  H    0.000000   0.000000   0.000000   0.000000   0.000000   0.214420
    50  H    0.000000   0.000000   0.000000   0.000000   0.000000   0.181839
              49         50
     1  C   -0.000001  -0.000013
     2  H    0.000000   0.000000
     3  H    0.000000   0.000000
     4  C    0.000052  -0.000049
     5  H    0.000000   0.000000
     6  C   -0.000013   0.000037
     7  H    0.000000   0.000000
     8  O    0.000000   0.000000
     9  O    0.000000   0.000000
    10  H    0.000000   0.000000
    11  H    0.000000   0.000000
    12  O    0.000000   0.000000
    13  H    0.000000   0.000000
    14  H    0.000000   0.000000
    15  O   -0.000003   0.000001
    16  H    0.000000   0.000000
    17  H    0.000000   0.000000
    18  O   -0.001245   0.000162
    19  H    0.000020  -0.000004
    20  H   -0.000344   0.000020
    21  O    0.000000  -0.000001
    22  H    0.000000   0.000000
    23  H    0.000000   0.000000
    24  O    0.000000   0.000000
    25  H    0.000000   0.000000
    26  H    0.000000   0.000000
    27  O    0.000002  -0.000029
    28  H    0.000001  -0.000030
    29  H    0.000000   0.000000
    30  O    0.000000   0.000000
    31  H    0.000000   0.000000
    32  H    0.000000   0.000000
    33  O   -0.000002  -0.000829
    34  H   -0.005511  -0.001278
    35  H    0.000104  -0.000133
    36  O   -0.002085   0.000390
    37  H    0.000694  -0.000037
    38  H    0.000039   0.000003
    39  O    0.000011  -0.000001
    40  H    0.000004   0.000000
    41  H    0.000000   0.000000
    42  O    0.000000   0.000000
    43  H    0.000000   0.000000
    44  H    0.000000   0.000000
    45  O    0.000000   0.000000
    46  H    0.000000   0.000000
    47  H    0.000000   0.000000
    48  O    0.214420   0.181839
    49  H    0.175800  -0.009468
    50  H   -0.009468   0.152074
 Mulliken charges:
               1
     1  C   -0.420889
     2  H    0.208208
     3  H    0.260088
     4  C   -0.010476
     5  H    0.251600
     6  C    0.031762
     7  H    0.204873
     8  O   -0.299980
     9  O   -1.325067
    10  H    0.431273
    11  H    0.637858
    12  O   -1.212504
    13  H    0.569402
    14  H    0.668570
    15  O   -1.153777
    16  H    0.620078
    17  H    0.557943
    18  O   -1.218829
    19  H    0.604941
    20  H    0.587291
    21  O   -1.257267
    22  H    0.653690
    23  H    0.626563
    24  O   -1.267770
    25  H    0.660979
    26  H    0.621277
    27  O   -1.123399
    28  H    0.456748
    29  H    0.611347
    30  O   -1.212603
    31  H    0.589552
    32  H    0.614579
    33  O   -1.110315
    34  H    0.573597
    35  H    0.514648
    36  O   -1.146113
    37  H    0.597458
    38  H    0.620545
    39  O   -1.306736
    40  H    0.605715
    41  H    0.623053
    42  O   -1.249637
    43  H    0.626232
    44  H    0.634617
    45  O   -1.074643
    46  H    0.641480
    47  H    0.451604
    48  O   -1.272440
    49  H    0.627526
    50  H    0.677346
 Sum of Mulliken charges =   0.00000
 Mulliken charges with hydrogens summed into heavy atoms:
               1
     1  C    0.047407
     4  C    0.241124
     6  C    0.236636
     8  O    0.131294
     9  O   -0.687210
    12  O    0.025468
    15  O    0.024244
    18  O   -0.026596
    21  O    0.022986
    24  O    0.014486
    27  O   -0.055304
    30  O   -0.008473
    33  O   -0.022070
    36  O    0.071890
    39  O   -0.077968
    42  O    0.011212
    45  O    0.018441
    48  O    0.032432
 Electronic spatial extent (au):  <R**2>=          12771.3537
 Charge=              0.0000 electrons
 Dipole moment (field-independent basis, Debye):
    X=             -4.7825    Y=             -7.8323    Z=              0.4839  Tot=              9.1897
 Quadrupole moment (field-independent basis, Debye-Ang):
   XX=            -90.5796   YY=           -180.1595   ZZ=           -110.8535
   XY=             30.5751   XZ=             -6.9095   YZ=             -0.2661
 Traceless Quadrupole moment (field-independent basis, Debye-Ang):
   XX=             36.6180   YY=            -52.9620   ZZ=             16.3440
   XY=             30.5751   XZ=             -6.9095   YZ=             -0.2661
 Octapole moment (field-independent basis, Debye-Ang**2):
  XXX=           -207.1034  YYY=            -32.7259  ZZZ=             77.6910  XYY=           -113.6940
  XXY=           -498.3190  XXZ=             99.4963  XZZ=            -32.8168  YZZ=            -38.7973
  YYZ=             60.3603  XYZ=             67.9920
 Hexadecapole moment (field-independent basis, Debye-Ang**3):
 XXXX=          -9305.5487 YYYY=          -4777.5480 ZZZZ=          -1029.3644 XXXY=            778.4210
 XXXZ=           -187.0073 YYYX=            -54.8906 YYYZ=           -238.8965 ZZZX=            274.2945
 ZZZY=            -17.6646 XXYY=          -2462.0153 XXZZ=          -1998.8549 YYZZ=           -835.6116
 XXYZ=            729.8439 YYXZ=           -158.3809 ZZXY=            -28.7143
 N-N= 1.118930843369D+03 E-N=-6.204670392674D+03  KE= 1.251030766300D+03
 Leave Link  601 at Fri Sep 14 20:28:40 2018, MaxMem=    33554432 cpu:         5.6
 (Enter /usr/local/pacerepov1/gaussian/G09D01LINDA/g09/l9999.exe)

 Test job not archived.
 1\1\GINC-RICH133-K35-34-L\SP\RLC-wPBE TD-FC\6-31+G(d)\C3H32O15\ROOT\14
 -Sep-2018\0\\#p td=(nstates=15)/6-31+g(d) lc-wpbe charge\\Acroleina in
  Water\\0,1\C,0,0.485154,0.480443,-1.430142\H,0,1.461403,0.187773,-1.0
 55732\H,0,0.429244,0.878853,-2.437062\C,0,-0.605127,0.346563,-0.658432
 \H,0,-1.591686,0.632893,-1.012412\C,0,-0.508516,-0.199107,0.712798\H,0
 ,-1.458487,-0.272107,1.272438\O,0,0.544883,-0.561317,1.236519\O,0,0.07
 0215,-0.209719,2.938522\H,0,0.401025,-0.341549,2.004082\H,0,0.823595,-
 0.348149,3.581412\O,0,2.305506,-3.133099,1.387332\H,0,1.893085,-2.3000
 49,1.018562\H,0,1.591395,-3.713299,1.778972\O,0,1.213436,4.223641,-1.7
 74378\H,0,1.274105,4.623541,-2.688928\H,0,0.252175,4.101571,-1.527108\
 O,0,-1.363075,4.778461,-1.553388\H,0,-2.163965,4.440461,-2.047708\H,0,
 -1.629004,5.036001,-0.624438\O,0,-1.986385,-0.941109,3.310042\H,0,-1.8
 65895,-1.911469,3.519602\H,0,-1.090654,-0.509289,3.204192\O,0,3.633015
 ,-1.965629,2.859232\H,0,4.452826,-1.599689,2.418722\H,0,3.105985,-2.49
 5539,2.194792\O,0,-3.521635,0.170041,1.948112\H,0,-3.153865,1.049221,1
 .645082\H,0,-2.819745,-0.326689,2.458672\O,0,1.890605,-0.766609,4.1458
 02\H,0,2.314725,-0.103459,4.762582\H,0,2.596106,-1.195819,3.581822\O,0
 ,-1.876364,5.575161,1.022662\H,0,-2.764125,5.125631,0.923152\H,0,-1.59
 3964,5.546611,1.981552\O,0,-3.419334,4.059121,-2.531938\H,0,-3.724615,
 4.887921,-2.063008\H,0,-4.097404,3.335181,-2.404648\O,0,-0.853745,6.21
 4631,-3.147228\H,0,-1.052965,5.531261,-2.444818\H,0,-0.552015,7.062511
 ,-2.711248\O,0,3.928256,-4.662469,0.604752\H,0,3.258405,-3.929719,0.72
 5002\H,0,3.939425,-5.240919,1.420402\O,0,4.202076,1.838021,-1.006338\H
 ,0,3.729896,2.719201,-0.981188\H,0,3.531755,1.098791,-0.941288\O,0,-4.
 055524,4.539591,0.626172\H,0,-4.445664,5.242601,0.031542\H,0,-4.346144
 ,4.701881,1.569162\\Version=EM64L-G09RevD.01\State=1-A\HF=-1758.957004
 7\RMSD=3.880e-09\PG=C01 [X(C3H32O15)]\\@


 A MATHEMATICIAN IS A MACHINE FOR TURNING COFFEE INTO THEOREMS.
     -- QUOTED BY PAUL ERDOS
 Job cpu time:       0 days  2 hours 47 minutes 26.0 seconds.
 File lengths (MBytes):  RWF=    792 Int=      0 D2E=      0 Chk=     96 Scr=      2
 Normal termination of Gaussian 09 at Fri Sep 14 20:28:44 2018.
