 Entering Gaussian System, Link 0=g09
 Input=Acroleina_water_15_31c.gjf
 Output=Acroleina_water_15_31c.log
 Initial command:
 /usr/local/pacerepov1/gaussian/G09D01LINDA/g09/l1.exe /nv/hp18/holiveira7/scratch/22411871/Gau-24177.inp -scrdir=/nv/hp18/holiveira7/scratch/22411871/
 Entering Link 1 = /usr/local/pacerepov1/gaussian/G09D01LINDA/g09/l1.exe PID=     24180.
  
 Copyright (c) 1988,1990,1992,1993,1995,1998,2003,2009,2013,
            Gaussian, Inc.  All Rights Reserved.
  
 This is part of the Gaussian(R) 09 program.  It is based on
 the Gaussian(R) 03 system (copyright 2003, Gaussian, Inc.),
 the Gaussian(R) 98 system (copyright 1998, Gaussian, Inc.),
 the Gaussian(R) 94 system (copyright 1995, Gaussian, Inc.),
 the Gaussian 92(TM) system (copyright 1992, Gaussian, Inc.),
 the Gaussian 90(TM) system (copyright 1990, Gaussian, Inc.),
 the Gaussian 88(TM) system (copyright 1988, Gaussian, Inc.),
 the Gaussian 86(TM) system (copyright 1986, Carnegie Mellon
 University), and the Gaussian 82(TM) system (copyright 1983,
 Carnegie Mellon University). Gaussian is a federally registered
 trademark of Gaussian, Inc.
  
 This software contains proprietary and confidential information,
 including trade secrets, belonging to Gaussian, Inc.
  
 This software is provided under written license and may be
 used, copied, transmitted, or stored only in accord with that
 written license.
  
 The following legend is applicable only to US Government
 contracts under FAR:
  
                    RESTRICTED RIGHTS LEGEND
  
 Use, reproduction and disclosure by the US Government is
 subject to restrictions as set forth in subparagraphs (a)
 and (c) of the Commercial Computer Software - Restricted
 Rights clause in FAR 52.227-19.
  
 Gaussian, Inc.
 340 Quinnipiac St., Bldg. 40, Wallingford CT 06492
  
  
 ---------------------------------------------------------------
 Warning -- This program may not be used in any manner that
 competes with the business of Gaussian, Inc. or will provide
 assistance to any competitor of Gaussian, Inc.  The licensee
 of this program is prohibited from giving any competitor of
 Gaussian, Inc. access to this program.  By using this program,
 the user acknowledges that Gaussian, Inc. is engaged in the
 business of creating and licensing software in the field of
 computational chemistry and represents and warrants to the
 licensee that it is not a competitor of Gaussian, Inc. and that
 it will not use this program in any manner prohibited above.
 ---------------------------------------------------------------
  

 Cite this work as:
 Gaussian 09, Revision D.01,
 M. J. Frisch, G. W. Trucks, H. B. Schlegel, G. E. Scuseria, 
 M. A. Robb, J. R. Cheeseman, G. Scalmani, V. Barone, B. Mennucci, 
 G. A. Petersson, H. Nakatsuji, M. Caricato, X. Li, H. P. Hratchian, 
 A. F. Izmaylov, J. Bloino, G. Zheng, J. L. Sonnenberg, M. Hada, 
 M. Ehara, K. Toyota, R. Fukuda, J. Hasegawa, M. Ishida, T. Nakajima, 
 Y. Honda, O. Kitao, H. Nakai, T. Vreven, J. A. Montgomery, Jr., 
 J. E. Peralta, F. Ogliaro, M. Bearpark, J. J. Heyd, E. Brothers, 
 K. N. Kudin, V. N. Staroverov, T. Keith, R. Kobayashi, J. Normand, 
 K. Raghavachari, A. Rendell, J. C. Burant, S. S. Iyengar, J. Tomasi, 
 M. Cossi, N. Rega, J. M. Millam, M. Klene, J. E. Knox, J. B. Cross, 
 V. Bakken, C. Adamo, J. Jaramillo, R. Gomperts, R. E. Stratmann, 
 O. Yazyev, A. J. Austin, R. Cammi, C. Pomelli, J. W. Ochterski, 
 R. L. Martin, K. Morokuma, V. G. Zakrzewski, G. A. Voth, 
 P. Salvador, J. J. Dannenberg, S. Dapprich, A. D. Daniels, 
 O. Farkas, J. B. Foresman, J. V. Ortiz, J. Cioslowski, 
 and D. J. Fox, Gaussian, Inc., Wallingford CT, 2013.
 
 ******************************************
 Gaussian 09:  EM64L-G09RevD.01 24-Apr-2013
                14-Sep-2018 
 ******************************************
 %chk=Acrolina_Din_31.chk
 %nprocshared=10
 Will use up to   10 processors via shared memory.
 -------------------------------------------
 #p td=(nstates=15)/6-31+g(d) lc-wpbe charge
 -------------------------------------------
 1/18=10,28=-2,38=1,125=101/1;
 2/12=2,17=6,18=5,40=1/2;
 3/5=1,6=6,7=11,11=9,16=1,25=1,30=1,74=-41/1,2,8,3;
 4//1;
 5/5=2,38=5/2;
 8/6=1,10=2,108=15/1;
 9/41=15,42=1,70=2/14;
 6/7=2,8=2,9=2,10=2/1;
 99/5=1,9=1/99;
 Leave Link    1 at Fri Sep 14 17:00:56 2018, MaxMem=           0 cpu:        13.3
 (Enter /usr/local/pacerepov1/gaussian/G09D01LINDA/g09/l101.exe)
 ------------------
 Acroleina in Water
 ------------------
 Symbolic Z-matrix:
 Charge =  0 Multiplicity = 1
 C                     0.48515   0.48044  -1.43014 
 H                     1.4614    0.18777  -1.05573 
 H                     0.42924   0.87885  -2.43706 
 C                    -0.60513   0.34656  -0.65843 
 H                    -1.59169   0.63289  -1.01241 
 C                    -0.50852  -0.19911   0.7128 
 H                    -1.45849  -0.27211   1.27244 
 O                     0.54488  -0.56132   1.23652 
 O                     2.28483   1.8467    1.58966 
 H                     2.17068   2.82476   1.41512 
 H                     1.39032   1.39977   1.5796 
 O                    -0.80773  -0.72987   3.3834 
 H                    -0.73161  -0.09085   2.61798 
 H                    -0.55146  -0.26607   4.2315 
 O                     0.54541  -2.67676   3.44872 
 H                    -0.02835  -1.87724   3.27089 
 H                    -0.02101  -3.42165   3.80131 
 O                     1.33188  -5.68099   0.26071 
 H                     1.26504  -4.71727   0.51916 
 H                     2.23144  -5.85721  -0.13904 
 O                     1.90954   4.13563   0.67292 
 H                     2.38487   4.52202  -0.1175 
 H                     0.92826   4.30945   0.58943 
 O                    -0.19578   4.98344   0.25874 
 H                     0.14505   5.7326   -0.30927 
 H                    -1.18422   4.89481   0.13549 
 O                     2.21948  -4.36925   2.58467 
 H                     1.65997  -3.69113   3.06131 
 H                     2.59873  -5.01418   3.2482 
 O                     1.81582  -1.25229   4.85628 
 H                     2.67523  -0.83745   4.55732 
 H                     1.40172  -1.748     4.09285 
 O                     4.61314   1.74139   0.96677 
 H                     4.67693   1.77691  -0.03058 
 H                     3.65198   1.77621   1.24068 
 O                    -2.70394   4.97952   0.00244 
 H                    -3.36799   4.29978  -0.30909 
 H                    -2.9877    5.33975   0.89113 
 O                     2.06372  -0.41812  -6.00041 
 H                     2.13913   0.5065   -6.37382 
 H                     1.12987  -0.57198  -5.67754 
 O                    -2.96536  -1.19806   4.36323 
 H                    -2.98534  -1.79982   5.16169 
 H                    -2.01787  -0.96195   4.14746 
 O                     3.39967  -1.13388  -3.86521 
 H                     3.06897  -0.89851  -4.77917 
 H                     3.90109  -0.35805  -3.4822 
 O                     4.14354  -4.5722    1.17927 
 H                     3.33452  -4.39052   1.73832 
 H                     3.86201  -4.96171   0.3023 
 
 NAtoms=     50 NQM=       50 NQMF=       0 NMMI=      0 NMMIF=      0
                NMic=       0 NMicF=      0.
                    Isotopes and Nuclear Properties:
 (Nuclear quadrupole moments (NQMom) in fm**2, nuclear magnetic moments (NMagM)
  in nuclear magnetons)

  Atom         1           2           3           4           5           6           7           8           9          10
 IAtWgt=          12           1           1          12           1          12           1          16          16           1
 AtmWgt=  12.0000000   1.0078250   1.0078250  12.0000000   1.0078250  12.0000000   1.0078250  15.9949146  15.9949146   1.0078250
 NucSpn=           0           1           1           0           1           0           1           0           0           1
 AtZEff=   0.0000000   0.0000000   0.0000000   0.0000000   0.0000000   0.0000000   0.0000000   0.0000000   0.0000000   0.0000000
 NQMom=    0.0000000   0.0000000   0.0000000   0.0000000   0.0000000   0.0000000   0.0000000   0.0000000   0.0000000   0.0000000
 NMagM=    0.0000000   2.7928460   2.7928460   0.0000000   2.7928460   0.0000000   2.7928460   0.0000000   0.0000000   2.7928460
 AtZNuc=   6.0000000   1.0000000   1.0000000   6.0000000   1.0000000   6.0000000   1.0000000   8.0000000   8.0000000   1.0000000

  Atom        11          12          13          14          15          16          17          18          19          20
 IAtWgt=           1          16           1           1          16           1           1          16           1           1
 AtmWgt=   1.0078250  15.9949146   1.0078250   1.0078250  15.9949146   1.0078250   1.0078250  15.9949146   1.0078250   1.0078250
 NucSpn=           1           0           1           1           0           1           1           0           1           1
 AtZEff=   0.0000000   0.0000000   0.0000000   0.0000000   0.0000000   0.0000000   0.0000000   0.0000000   0.0000000   0.0000000
 NQMom=    0.0000000   0.0000000   0.0000000   0.0000000   0.0000000   0.0000000   0.0000000   0.0000000   0.0000000   0.0000000
 NMagM=    2.7928460   0.0000000   2.7928460   2.7928460   0.0000000   2.7928460   2.7928460   0.0000000   2.7928460   2.7928460
 AtZNuc=   1.0000000   8.0000000   1.0000000   1.0000000   8.0000000   1.0000000   1.0000000   8.0000000   1.0000000   1.0000000

  Atom        21          22          23          24          25          26          27          28          29          30
 IAtWgt=          16           1           1          16           1           1          16           1           1          16
 AtmWgt=  15.9949146   1.0078250   1.0078250  15.9949146   1.0078250   1.0078250  15.9949146   1.0078250   1.0078250  15.9949146
 NucSpn=           0           1           1           0           1           1           0           1           1           0
 AtZEff=   0.0000000   0.0000000   0.0000000   0.0000000   0.0000000   0.0000000   0.0000000   0.0000000   0.0000000   0.0000000
 NQMom=    0.0000000   0.0000000   0.0000000   0.0000000   0.0000000   0.0000000   0.0000000   0.0000000   0.0000000   0.0000000
 NMagM=    0.0000000   2.7928460   2.7928460   0.0000000   2.7928460   2.7928460   0.0000000   2.7928460   2.7928460   0.0000000
 AtZNuc=   8.0000000   1.0000000   1.0000000   8.0000000   1.0000000   1.0000000   8.0000000   1.0000000   1.0000000   8.0000000

  Atom        31          32          33          34          35          36          37          38          39          40
 IAtWgt=           1           1          16           1           1          16           1           1          16           1
 AtmWgt=   1.0078250   1.0078250  15.9949146   1.0078250   1.0078250  15.9949146   1.0078250   1.0078250  15.9949146   1.0078250
 NucSpn=           1           1           0           1           1           0           1           1           0           1
 AtZEff=   0.0000000   0.0000000   0.0000000   0.0000000   0.0000000   0.0000000   0.0000000   0.0000000   0.0000000   0.0000000
 NQMom=    0.0000000   0.0000000   0.0000000   0.0000000   0.0000000   0.0000000   0.0000000   0.0000000   0.0000000   0.0000000
 NMagM=    2.7928460   2.7928460   0.0000000   2.7928460   2.7928460   0.0000000   2.7928460   2.7928460   0.0000000   2.7928460
 AtZNuc=   1.0000000   1.0000000   8.0000000   1.0000000   1.0000000   8.0000000   1.0000000   1.0000000   8.0000000   1.0000000

  Atom        41          42          43          44          45          46          47          48          49          50
 IAtWgt=           1          16           1           1          16           1           1          16           1           1
 AtmWgt=   1.0078250  15.9949146   1.0078250   1.0078250  15.9949146   1.0078250   1.0078250  15.9949146   1.0078250   1.0078250
 NucSpn=           1           0           1           1           0           1           1           0           1           1
 AtZEff=   0.0000000   0.0000000   0.0000000   0.0000000   0.0000000   0.0000000   0.0000000   0.0000000   0.0000000   0.0000000
 NQMom=    0.0000000   0.0000000   0.0000000   0.0000000   0.0000000   0.0000000   0.0000000   0.0000000   0.0000000   0.0000000
 NMagM=    2.7928460   0.0000000   2.7928460   2.7928460   0.0000000   2.7928460   2.7928460   0.0000000   2.7928460   2.7928460
 AtZNuc=   1.0000000   8.0000000   1.0000000   1.0000000   8.0000000   1.0000000   1.0000000   8.0000000   1.0000000   1.0000000
 Background charge distribution read from input stream:
 Point Charges:
 XYZ=   -2.3498    4.2996   -4.2808 Q=   -0.8200 A=    0.0000 R=    0.0000 C=    0.0000
 XYZ=   -1.8016    4.6621   -3.5271 Q=    0.4100 A=    0.0000 R=    0.0000 C=    0.0000
 XYZ=   -3.3148    4.2939   -4.0184 Q=    0.4100 A=    0.0000 R=    0.0000 C=    0.0000
 XYZ=    4.5521   -3.2442   -3.5197 Q=   -0.8200 A=    0.0000 R=    0.0000 C=    0.0000
 XYZ=    5.2601   -2.8840   -2.9122 Q=    0.4100 A=    0.0000 R=    0.0000 C=    0.0000
 XYZ=    3.8695   -2.5344   -3.6938 Q=    0.4100 A=    0.0000 R=    0.0000 C=    0.0000
 XYZ=    3.5156   -5.7522   -0.7456 Q=   -0.8200 A=    0.0000 R=    0.0000 C=    0.0000
 XYZ=    4.2377   -6.3883   -0.4735 Q=    0.4100 A=    0.0000 R=    0.0000 C=    0.0000
 XYZ=    3.5144   -5.6553   -1.7409 Q=    0.4100 A=    0.0000 R=    0.0000 C=    0.0000
 XYZ=   -1.9991    6.6989   -1.6083 Q=   -0.8200 A=    0.0000 R=    0.0000 C=    0.0000
 XYZ=   -2.3191    6.0477   -0.9201 Q=    0.4100 A=    0.0000 R=    0.0000 C=    0.0000
 XYZ=   -1.8460    7.5891   -1.1791 Q=    0.4100 A=    0.0000 R=    0.0000 C=    0.0000
 XYZ=    0.0276   -0.2959    5.6950 Q=   -0.8200 A=    0.0000 R=    0.0000 C=    0.0000
 XYZ=    0.3479    0.4486    6.2808 Q=    0.4100 A=    0.0000 R=    0.0000 C=    0.0000
 XYZ=    0.8082   -0.8468    5.3995 Q=    0.4100 A=    0.0000 R=    0.0000 C=    0.0000
 XYZ=   -0.3792   -4.4630    4.4845 Q=   -0.8200 A=    0.0000 R=    0.0000 C=    0.0000
 XYZ=   -0.7759   -5.0340    3.7657 Q=    0.4100 A=    0.0000 R=    0.0000 C=    0.0000
 XYZ=    0.4070   -4.9320    4.8868 Q=    0.4100 A=    0.0000 R=    0.0000 C=    0.0000
 XYZ=   -4.7367    3.7116   -1.0229 Q=   -0.8200 A=    0.0000 R=    0.0000 C=    0.0000
 XYZ=   -5.0981    4.5553   -0.6257 Q=    0.4100 A=    0.0000 R=    0.0000 C=    0.0000
 XYZ=   -5.2708    2.9328   -0.6938 Q=    0.4100 A=    0.0000 R=    0.0000 C=    0.0000
 XYZ=    0.0471   -7.3803    1.5815 Q=   -0.8200 A=    0.0000 R=    0.0000 C=    0.0000
 XYZ=    0.6363   -6.6797    1.1791 Q=    0.4100 A=    0.0000 R=    0.0000 C=    0.0000
 XYZ=   -0.4497   -7.8554    0.8552 Q=    0.4100 A=    0.0000 R=    0.0000 C=    0.0000
 XYZ=    3.1781    5.4316    2.2480 Q=   -0.8200 A=    0.0000 R=    0.0000 C=    0.0000
 XYZ=    2.5573    4.8416    1.7317 Q=    0.4100 A=    0.0000 R=    0.0000 C=    0.0000
 XYZ=    3.5734    6.1164    1.6358 Q=    0.4100 A=    0.0000 R=    0.0000 C=    0.0000
 XYZ=   -3.1908    2.2349   -5.0899 Q=   -0.8200 A=    0.0000 R=    0.0000 C=    0.0000
 XYZ=   -2.7544    3.0396   -4.6871 Q=    0.4100 A=    0.0000 R=    0.0000 C=    0.0000
 XYZ=   -3.0753    2.2552   -6.0830 Q=    0.4100 A=    0.0000 R=    0.0000 C=    0.0000
 XYZ=   -4.3797    4.3875   -3.2749 Q=   -0.8200 A=    0.0000 R=    0.0000 C=    0.0000
 XYZ=   -4.3405    4.1435   -2.3059 Q=    0.4100 A=    0.0000 R=    0.0000 C=    0.0000
 XYZ=   -5.1921    3.9772   -3.6893 Q=    0.4100 A=    0.0000 R=    0.0000 C=    0.0000
 XYZ=    5.4460   -1.8528    2.4957 Q=   -0.8200 A=    0.0000 R=    0.0000 C=    0.0000
 XYZ=    5.1790   -2.0839    1.5601 Q=    0.4100 A=    0.0000 R=    0.0000 C=    0.0000
 XYZ=    5.8265   -2.6622    2.9431 Q=    0.4100 A=    0.0000 R=    0.0000 C=    0.0000
 XYZ=    1.0923    6.6611   -0.9270 Q=   -0.8200 A=    0.0000 R=    0.0000 C=    0.0000
 XYZ=    1.9029    6.0995   -1.0930 Q=    0.4100 A=    0.0000 R=    0.0000 C=    0.0000
 XYZ=    0.7511    7.0190   -1.7962 Q=    0.4100 A=    0.0000 R=    0.0000 C=    0.0000
 XYZ=    4.3900   -5.3853   -2.9839 Q=   -0.8200 A=    0.0000 R=    0.0000 C=    0.0000
 XYZ=    4.3767   -4.4108   -3.2078 Q=    0.4100 A=    0.0000 R=    0.0000 C=    0.0000
 XYZ=    4.4301   -5.9206   -3.8276 Q=    0.4100 A=    0.0000 R=    0.0000 C=    0.0000
 XYZ=    4.0510   -0.8981    4.1562 Q=   -0.8200 A=    0.0000 R=    0.0000 C=    0.0000
 XYZ=    4.5812   -0.2952    4.7525 Q=    0.4100 A=    0.0000 R=    0.0000 C=    0.0000
 XYZ=    4.5926   -1.1272    3.3474 Q=    0.4100 A=    0.0000 R=    0.0000 C=    0.0000
 XYZ=    5.5970   -2.9920    0.2345 Q=   -0.8200 A=    0.0000 R=    0.0000 C=    0.0000
 XYZ=    4.9960   -3.6718    0.6548 Q=    0.4100 A=    0.0000 R=    0.0000 C=    0.0000
 XYZ=    6.5100   -3.3823    0.1155 Q=    0.4100 A=    0.0000 R=    0.0000 C=    0.0000
 XYZ=   -5.1157   -1.3764    3.1977 Q=   -0.8200 A=    0.0000 R=    0.0000 C=    0.0000
 XYZ=   -4.1595   -1.1471    3.3798 Q=    0.4100 A=    0.0000 R=    0.0000 C=    0.0000
 XYZ=   -5.3378   -2.2491    3.6326 Q=    0.4100 A=    0.0000 R=    0.0000 C=    0.0000
 XYZ=    3.1248    5.4280   -1.0189 Q=   -0.8200 A=    0.0000 R=    0.0000 C=    0.0000
 XYZ=    3.6320    5.9591   -0.3401 Q=    0.4100 A=    0.0000 R=    0.0000 C=    0.0000
 XYZ=    3.7624    5.0485   -1.6893 Q=    0.4100 A=    0.0000 R=    0.0000 C=    0.0000
 XYZ=    5.9907   -1.9478   -1.8245 Q=   -0.8200 A=    0.0000 R=    0.0000 C=    0.0000
 XYZ=    6.8300   -1.5248   -1.4827 Q=    0.4100 A=    0.0000 R=    0.0000 C=    0.0000
 XYZ=    5.5717   -2.4917   -1.0974 Q=    0.4100 A=    0.0000 R=    0.0000 C=    0.0000
 XYZ=   -3.1539    5.7095    2.1401 Q=   -0.8200 A=    0.0000 R=    0.0000 C=    0.0000
 XYZ=   -4.0459    5.3685    2.4368 Q=    0.4100 A=    0.0000 R=    0.0000 C=    0.0000
 XYZ=   -2.4395    5.3299    2.7280 Q=    0.4100 A=    0.0000 R=    0.0000 C=    0.0000
 XYZ=    5.0882    0.2046   -2.9564 Q=   -0.8200 A=    0.0000 R=    0.0000 C=    0.0000
 XYZ=    5.7610    0.2676   -3.6935 Q=    0.4100 A=    0.0000 R=    0.0000 C=    0.0000
 XYZ=    5.2381   -0.6382   -2.4394 Q=    0.4100 A=    0.0000 R=    0.0000 C=    0.0000
 XYZ=    5.0785    1.9400   -1.4146 Q=   -0.8200 A=    0.0000 R=    0.0000 C=    0.0000
 XYZ=    4.8245    2.8240   -1.8071 Q=    0.4100 A=    0.0000 R=    0.0000 C=    0.0000
 XYZ=    4.9977    1.2294   -2.1137 Q=    0.4100 A=    0.0000 R=    0.0000 C=    0.0000
 XYZ=    0.0318    7.1143   -2.9613 Q=   -0.8200 A=    0.0000 R=    0.0000 C=    0.0000
 XYZ=   -0.7944    6.8010   -2.4929 Q=    0.4100 A=    0.0000 R=    0.0000 C=    0.0000
 XYZ=    0.0869    6.6850   -3.8628 Q=    0.4100 A=    0.0000 R=    0.0000 C=    0.0000
 XYZ=   -5.0734    0.9455   -4.9180 Q=   -0.8200 A=    0.0000 R=    0.0000 C=    0.0000
 XYZ=   -4.9189    0.1367   -4.3505 Q=    0.4100 A=    0.0000 R=    0.0000 C=    0.0000
 XYZ=   -4.2417    1.5003   -4.9410 Q=    0.4100 A=    0.0000 R=    0.0000 C=    0.0000
 XYZ=   -1.4592   -6.2484    3.0926 Q=   -0.8200 A=    0.0000 R=    0.0000 C=    0.0000
 XYZ=   -0.8293   -6.7996    2.5454 Q=    0.4100 A=    0.0000 R=    0.0000 C=    0.0000
 XYZ=   -2.2563   -6.0058    2.5396 Q=    0.4100 A=    0.0000 R=    0.0000 C=    0.0000
 XYZ=   -4.9896    0.0539    5.1324 Q=   -0.8200 A=    0.0000 R=    0.0000 C=    0.0000
 XYZ=   -3.9917    0.1133    5.1064 Q=    0.4100 A=    0.0000 R=    0.0000 C=    0.0000
 XYZ=   -5.3153   -0.4393    4.3257 Q=    0.4100 A=    0.0000 R=    0.0000 C=    0.0000
 XYZ=    5.7496    2.7391    2.8638 Q=   -0.8200 A=    0.0000 R=    0.0000 C=    0.0000
 XYZ=    5.1570    3.4516    3.2396 Q=    0.4100 A=    0.0000 R=    0.0000 C=    0.0000
 XYZ=    5.2632    2.2479    2.1412 Q=    0.4100 A=    0.0000 R=    0.0000 C=    0.0000
 XYZ=    3.7440   -2.0240   -6.9187 Q=   -0.8200 A=    0.0000 R=    0.0000 C=    0.0000
 XYZ=    3.8949   -2.9191   -6.4992 Q=    0.4100 A=    0.0000 R=    0.0000 C=    0.0000
 XYZ=    2.9660   -1.5762   -6.4778 Q=    0.4100 A=    0.0000 R=    0.0000 C=    0.0000
 XYZ=    4.4149   -3.0304    5.2521 Q=   -0.8200 A=    0.0000 R=    0.0000 C=    0.0000
 XYZ=    4.3593   -2.2009    4.6963 Q=    0.4100 A=    0.0000 R=    0.0000 C=    0.0000
 XYZ=    3.6804   -3.0266    5.9309 Q=    0.4100 A=    0.0000 R=    0.0000 C=    0.0000
 XYZ=   -2.4853   -4.9621    5.3678 Q=   -0.8200 A=    0.0000 R=    0.0000 C=    0.0000
 XYZ=   -1.5646   -4.7729    5.0265 Q=    0.4100 A=    0.0000 R=    0.0000 C=    0.0000
 XYZ=   -2.4247   -5.4886    6.2158 Q=    0.4100 A=    0.0000 R=    0.0000 C=    0.0000
 XYZ=    4.2148   -3.9823   -5.7676 Q=   -0.8200 A=    0.0000 R=    0.0000 C=    0.0000
 XYZ=    4.3994   -3.7098   -4.8233 Q=    0.4100 A=    0.0000 R=    0.0000 C=    0.0000
 XYZ=    5.0720   -4.0023   -6.2823 Q=    0.4100 A=    0.0000 R=    0.0000 C=    0.0000
 XYZ=    6.4292    0.2185    1.3732 Q=   -0.8200 A=    0.0000 R=    0.0000 C=    0.0000
 XYZ=    5.8398    1.0246    1.3190 Q=    0.4100 A=    0.0000 R=    0.0000 C=    0.0000
 XYZ=    5.9360   -0.5252    1.8247 Q=    0.4100 A=    0.0000 R=    0.0000 C=    0.0000
 XYZ=    2.7119   -2.3124    6.9026 Q=   -0.8200 A=    0.0000 R=    0.0000 C=    0.0000
 XYZ=    2.4322   -1.7717    6.1093 Q=    0.4100 A=    0.0000 R=    0.0000 C=    0.0000
 XYZ=    3.4903   -1.8710    7.3492 Q=    0.4100 A=    0.0000 R=    0.0000 C=    0.0000
 XYZ=   -3.5837    6.6792   -3.3358 Q=   -0.8200 A=    0.0000 R=    0.0000 C=    0.0000
 XYZ=   -3.0013    6.7654   -2.5275 Q=    0.4100 A=    0.0000 R=    0.0000 C=    0.0000
 XYZ=   -4.1709    5.8754   -3.2393 Q=    0.4100 A=    0.0000 R=    0.0000 C=    0.0000
 XYZ=   -0.7147   -2.0717    7.1565 Q=   -0.8200 A=    0.0000 R=    0.0000 C=    0.0000
 XYZ=   -0.5051   -1.2155    6.6840 Q=    0.4100 A=    0.0000 R=    0.0000 C=    0.0000
 XYZ=   -1.4637   -2.5377    6.6853 Q=    0.4100 A=    0.0000 R=    0.0000 C=    0.0000
 XYZ=    4.7744    4.1120   -2.4939 Q=   -0.8200 A=    0.0000 R=    0.0000 C=    0.0000
 XYZ=    5.5969    4.5034   -2.0813 Q=    0.4100 A=    0.0000 R=    0.0000 C=    0.0000
 XYZ=    4.7226    4.3827   -3.4552 Q=    0.4100 A=    0.0000 R=    0.0000 C=    0.0000
 XYZ=   -2.0739    7.7753    1.6344 Q=   -0.8200 A=    0.0000 R=    0.0000 C=    0.0000
 XYZ=   -2.3873    8.4288    2.3235 Q=    0.4100 A=    0.0000 R=    0.0000 C=    0.0000
 XYZ=   -2.5674    6.9125    1.7445 Q=    0.4100 A=    0.0000 R=    0.0000 C=    0.0000
 XYZ=    5.0531   -5.9461    3.0170 Q=   -0.8200 A=    0.0000 R=    0.0000 C=    0.0000
 XYZ=    4.8313   -5.4427    2.1819 Q=    0.4100 A=    0.0000 R=    0.0000 C=    0.0000
 XYZ=    4.2155   -6.1150    3.5367 Q=    0.4100 A=    0.0000 R=    0.0000 C=    0.0000
 XYZ=    0.2727    6.1305   -5.0015 Q=   -0.8200 A=    0.0000 R=    0.0000 C=    0.0000
 XYZ=   -0.4664    6.0335   -5.6680 Q=    0.4100 A=    0.0000 R=    0.0000 C=    0.0000
 XYZ=    0.9980    5.4744   -5.2103 Q=    0.4100 A=    0.0000 R=    0.0000 C=    0.0000
 XYZ=   -3.6132   -6.1450    2.0368 Q=   -0.8200 A=    0.0000 R=    0.0000 C=    0.0000
 XYZ=   -3.5775   -7.1439    2.0076 Q=    0.4100 A=    0.0000 R=    0.0000 C=    0.0000
 XYZ=   -4.1085   -5.8057    1.2370 Q=    0.4100 A=    0.0000 R=    0.0000 C=    0.0000
 XYZ=    1.7171    8.1928    0.6850 Q=   -0.8200 A=    0.0000 R=    0.0000 C=    0.0000
 XYZ=    1.1231    8.1007    1.4842 Q=    0.4100 A=    0.0000 R=    0.0000 C=    0.0000
 XYZ=    1.3569    7.6363   -0.0638 Q=    0.4100 A=    0.0000 R=    0.0000 C=    0.0000
 XYZ=    6.4419   -5.4468   -1.8939 Q=   -0.8200 A=    0.0000 R=    0.0000 C=    0.0000
 XYZ=    5.5025   -5.5702   -2.2137 Q=    0.4100 A=    0.0000 R=    0.0000 C=    0.0000
 XYZ=    7.0782   -5.7107   -2.6189 Q=    0.4100 A=    0.0000 R=    0.0000 C=    0.0000
 XYZ=    2.9714   -6.0108    4.1624 Q=   -0.8200 A=    0.0000 R=    0.0000 C=    0.0000
 XYZ=    2.3867   -5.6805    4.9034 Q=    0.4100 A=    0.0000 R=    0.0000 C=    0.0000
 XYZ=    2.4989   -6.7377    3.6638 Q=    0.4100 A=    0.0000 R=    0.0000 C=    0.0000
 XYZ=    2.1067    1.8081   -7.3647 Q=   -0.8200 A=    0.0000 R=    0.0000 C=    0.0000
 XYZ=    3.0596    1.8030   -7.0617 Q=    0.4100 A=    0.0000 R=    0.0000 C=    0.0000
 XYZ=    2.0658    1.5893   -8.3397 Q=    0.4100 A=    0.0000 R=    0.0000 C=    0.0000
 XYZ=   -1.7879    5.7131   -6.3020 Q=   -0.8200 A=    0.0000 R=    0.0000 C=    0.0000
 XYZ=   -2.1346    5.3628   -5.4318 Q=    0.4100 A=    0.0000 R=    0.0000 C=    0.0000
 XYZ=   -2.5514    6.0471   -6.8547 Q=    0.4100 A=    0.0000 R=    0.0000 C=    0.0000
 XYZ=    4.7200    4.6659    3.7018 Q=   -0.8200 A=    0.0000 R=    0.0000 C=    0.0000
 XYZ=    4.3072    4.2610    4.5178 Q=    0.4100 A=    0.0000 R=    0.0000 C=    0.0000
 XYZ=    4.0146    5.1316    3.1675 Q=    0.4100 A=    0.0000 R=    0.0000 C=    0.0000
 XYZ=    1.3049    3.9204   -7.1235 Q=   -0.8200 A=    0.0000 R=    0.0000 C=    0.0000
 XYZ=    1.6953    4.4792   -6.3918 Q=    0.4100 A=    0.0000 R=    0.0000 C=    0.0000
 XYZ=    1.6648    2.9895   -7.0602 Q=    0.4100 A=    0.0000 R=    0.0000 C=    0.0000
 XYZ=    2.5303    5.1771   -4.9916 Q=   -0.8200 A=    0.0000 R=    0.0000 C=    0.0000
 XYZ=    3.4962    4.9371   -4.8944 Q=    0.4100 A=    0.0000 R=    0.0000 C=    0.0000
 XYZ=    2.3538    6.0440   -4.5252 Q=    0.4100 A=    0.0000 R=    0.0000 C=    0.0000
 XYZ=   -6.7003    1.9928   -0.4456 Q=   -0.8200 A=    0.0000 R=    0.0000 C=    0.0000
 XYZ=   -6.9670    1.0307   -0.3894 Q=    0.4100 A=    0.0000 R=    0.0000 C=    0.0000
 XYZ=   -7.1214    2.4089   -1.2516 Q=    0.4100 A=    0.0000 R=    0.0000 C=    0.0000
 XYZ=   -5.1855    4.6446    2.4793 Q=   -0.8200 A=    0.0000 R=    0.0000 C=    0.0000
 XYZ=   -5.5751    4.9982    1.6289 Q=    0.4100 A=    0.0000 R=    0.0000 C=    0.0000
 XYZ=   -5.8056    4.8438    3.2381 Q=    0.4100 A=    0.0000 R=    0.0000 C=    0.0000
 XYZ=    0.2789    7.8793    2.5695 Q=   -0.8200 A=    0.0000 R=    0.0000 C=    0.0000
 XYZ=    0.0333    8.5881    3.2308 Q=    0.4100 A=    0.0000 R=    0.0000 C=    0.0000
 XYZ=   -0.5455    7.5584    2.1033 Q=    0.4100 A=    0.0000 R=    0.0000 C=    0.0000
 XYZ=    1.5334    0.9761    7.3327 Q=   -0.8200 A=    0.0000 R=    0.0000 C=    0.0000
 XYZ=    1.5887   -0.0110    7.4827 Q=    0.4100 A=    0.0000 R=    0.0000 C=    0.0000
 XYZ=    2.4188    1.3151    7.0146 Q=    0.4100 A=    0.0000 R=    0.0000 C=    0.0000
 XYZ=   -4.3074   -5.1839    3.9804 Q=   -0.8200 A=    0.0000 R=    0.0000 C=    0.0000
 XYZ=   -3.4855   -5.2265    4.5486 Q=    0.4100 A=    0.0000 R=    0.0000 C=    0.0000
 XYZ=   -4.0947   -5.5157    3.0613 Q=    0.4100 A=    0.0000 R=    0.0000 C=    0.0000
 XYZ=   -1.9116   -1.4242   -8.8986 Q=   -0.8200 A=    0.0000 R=    0.0000 C=    0.0000
 XYZ=   -1.8947   -2.2615   -9.4452 Q=    0.4100 A=    0.0000 R=    0.0000 C=    0.0000
 XYZ=   -2.0269   -1.6586   -7.9333 Q=    0.4100 A=    0.0000 R=    0.0000 C=    0.0000
 XYZ=   -5.7688   -4.3371   -4.5207 Q=   -0.8200 A=    0.0000 R=    0.0000 C=    0.0000
 XYZ=   -6.2213   -3.8086   -5.2391 Q=    0.4100 A=    0.0000 R=    0.0000 C=    0.0000
 XYZ=   -4.9442   -3.8564   -4.2225 Q=    0.4100 A=    0.0000 R=    0.0000 C=    0.0000
 XYZ=   -6.1309    2.9834   -4.2042 Q=   -0.8200 A=    0.0000 R=    0.0000 C=    0.0000
 XYZ=   -6.6881    3.1129   -5.0245 Q=    0.4100 A=    0.0000 R=    0.0000 C=    0.0000
 XYZ=   -5.7778    2.0480   -4.1855 Q=    0.4100 A=    0.0000 R=    0.0000 C=    0.0000
 XYZ=    5.9990   -3.9694    3.6331 Q=   -0.8200 A=    0.0000 R=    0.0000 C=    0.0000
 XYZ=    5.3854   -3.5842    4.3223 Q=    0.4100 A=    0.0000 R=    0.0000 C=    0.0000
 XYZ=    5.7027   -4.8965    3.4038 Q=    0.4100 A=    0.0000 R=    0.0000 C=    0.0000
 XYZ=   -3.0436   -2.7123    6.1778 Q=   -0.8200 A=    0.0000 R=    0.0000 C=    0.0000
 XYZ=   -3.4553   -2.7068    7.0891 Q=    0.4100 A=    0.0000 R=    0.0000 C=    0.0000
 XYZ=   -3.0309   -3.6473    5.8234 Q=    0.4100 A=    0.0000 R=    0.0000 C=    0.0000
 XYZ=    1.1808   -5.7087    5.6995 Q=   -0.8200 A=    0.0000 R=    0.0000 C=    0.0000
 XYZ=    0.6913   -6.5584    5.8960 Q=    0.4100 A=    0.0000 R=    0.0000 C=    0.0000
 XYZ=    1.0854   -5.0826    6.4735 Q=    0.4100 A=    0.0000 R=    0.0000 C=    0.0000
 XYZ=    7.1622    1.4453   -0.5656 Q=   -0.8200 A=    0.0000 R=    0.0000 C=    0.0000
 XYZ=    6.3006    1.6332   -1.0372 Q=    0.4100 A=    0.0000 R=    0.0000 C=    0.0000
 XYZ=    6.9994    0.8010    0.1817 Q=    0.4100 A=    0.0000 R=    0.0000 C=    0.0000
 XYZ=    3.7453    1.9362    6.7501 Q=   -0.8200 A=    0.0000 R=    0.0000 C=    0.0000
 XYZ=    4.1293    2.0767    7.6627 Q=    0.4100 A=    0.0000 R=    0.0000 C=    0.0000
 XYZ=    3.5315    2.8221    6.3385 Q=    0.4100 A=    0.0000 R=    0.0000 C=    0.0000
 XYZ=   -7.1014    3.0618    1.8047 Q=   -0.8200 A=    0.0000 R=    0.0000 C=    0.0000
 XYZ=   -6.4607    3.7788    2.0795 Q=    0.4100 A=    0.0000 R=    0.0000 C=    0.0000
 XYZ=   -6.8416    2.7095    0.9056 Q=    0.4100 A=    0.0000 R=    0.0000 C=    0.0000
 XYZ=   -1.8986    8.8114   -0.4386 Q=   -0.8200 A=    0.0000 R=    0.0000 C=    0.0000
 XYZ=   -1.0297    9.3026   -0.4998 Q=    0.4100 A=    0.0000 R=    0.0000 C=    0.0000
 XYZ=   -1.9195    8.2750    0.4052 Q=    0.4100 A=    0.0000 R=    0.0000 C=    0.0000
 XYZ=   -5.8875    5.6317    0.1325 Q=   -0.8200 A=    0.0000 R=    0.0000 C=    0.0000
 XYZ=   -5.7420    6.6199    0.1808 Q=    0.4100 A=    0.0000 R=    0.0000 C=    0.0000
 XYZ=   -6.7986    5.4467   -0.2360 Q=    0.4100 A=    0.0000 R=    0.0000 C=    0.0000
 XYZ=    5.2690    0.5195    5.6232 Q=   -0.8200 A=    0.0000 R=    0.0000 C=    0.0000
 XYZ=    5.7984    0.1112    6.3668 Q=    0.4100 A=    0.0000 R=    0.0000 C=    0.0000
 XYZ=    4.5945    1.1527    6.0029 Q=    0.4100 A=    0.0000 R=    0.0000 C=    0.0000
 XYZ=   -5.4034   -5.4856    0.4610 Q=   -0.8200 A=    0.0000 R=    0.0000 C=    0.0000
 XYZ=   -5.7388   -5.1708   -0.4270 Q=    0.4100 A=    0.0000 R=    0.0000 C=    0.0000
 XYZ=   -5.3561   -6.4845    0.4644 Q=    0.4100 A=    0.0000 R=    0.0000 C=    0.0000
 XYZ=   -7.0922   -1.8066    1.6096 Q=   -0.8200 A=    0.0000 R=    0.0000 C=    0.0000
 XYZ=   -6.3573   -1.4280    2.1721 Q=    0.4100 A=    0.0000 R=    0.0000 C=    0.0000
 XYZ=   -7.0373   -2.8051    1.6174 Q=    0.4100 A=    0.0000 R=    0.0000 C=    0.0000
 XYZ=    0.8543   -3.7321    7.6128 Q=   -0.8200 A=    0.0000 R=    0.0000 C=    0.0000
 XYZ=    1.7298   -3.2530    7.5494 Q=    0.4100 A=    0.0000 R=    0.0000 C=    0.0000
 XYZ=    0.1213   -3.1303    7.2954 Q=    0.4100 A=    0.0000 R=    0.0000 C=    0.0000
 XYZ=    4.4819    1.6166   -6.6351 Q=   -0.8200 A=    0.0000 R=    0.0000 C=    0.0000
 XYZ=    5.1117    2.3597   -6.4088 Q=    0.4100 A=    0.0000 R=    0.0000 C=    0.0000
 XYZ=    5.0043    0.8055   -6.8980 Q=    0.4100 A=    0.0000 R=    0.0000 C=    0.0000
 XYZ=    5.6125   -6.9540   -0.1288 Q=   -0.8200 A=    0.0000 R=    0.0000 C=    0.0000
 XYZ=    6.3094   -7.3878    0.4424 Q=    0.4100 A=    0.0000 R=    0.0000 C=    0.0000
 XYZ=    6.0417   -6.2644   -0.7120 Q=    0.4100 A=    0.0000 R=    0.0000 C=    0.0000
 XYZ=   -1.1769   -8.3409    4.1657 Q=   -0.8200 A=    0.0000 R=    0.0000 C=    0.0000
 XYZ=   -0.7373   -8.9373    3.4940 Q=    0.4100 A=    0.0000 R=    0.0000 C=    0.0000
 XYZ=   -1.4986   -7.5093    3.7130 Q=    0.4100 A=    0.0000 R=    0.0000 C=    0.0000
 XYZ=    3.7275    4.1433    5.9924 Q=   -0.8200 A=    0.0000 R=    0.0000 C=    0.0000
 XYZ=    4.4528    4.5872    6.5186 Q=    0.4100 A=    0.0000 R=    0.0000 C=    0.0000
 XYZ=    2.8650    4.6277    6.1392 Q=    0.4100 A=    0.0000 R=    0.0000 C=    0.0000
 XYZ=   -5.7460    1.6997   -7.0674 Q=   -0.8200 A=    0.0000 R=    0.0000 C=    0.0000
 XYZ=   -6.0725    0.9718   -7.6703 Q=    0.4100 A=    0.0000 R=    0.0000 C=    0.0000
 XYZ=   -5.3244    1.2959   -6.2554 Q=    0.4100 A=    0.0000 R=    0.0000 C=    0.0000
 XYZ=   -5.8965   -3.4829    3.9774 Q=   -0.8200 A=    0.0000 R=    0.0000 C=    0.0000
 XYZ=   -6.2445   -3.2618    4.8885 Q=    0.4100 A=    0.0000 R=    0.0000 C=    0.0000
 XYZ=   -5.1237   -4.1122    4.0595 Q=    0.4100 A=    0.0000 R=    0.0000 C=    0.0000
 XYZ=    7.5948   -4.2392   -0.0931 Q=   -0.8200 A=    0.0000 R=    0.0000 C=    0.0000
 XYZ=    8.5172   -4.5544   -0.3168 Q=    0.4100 A=    0.0000 R=    0.0000 C=    0.0000
 XYZ=    6.9295   -4.7288   -0.6567 Q=    0.4100 A=    0.0000 R=    0.0000 C=    0.0000
 XYZ=    1.2740    6.9932    4.5525 Q=   -0.8200 A=    0.0000 R=    0.0000 C=    0.0000
 XYZ=    0.8654    7.2531    3.6776 Q=    0.4100 A=    0.0000 R=    0.0000 C=    0.0000
 XYZ=    2.2134    6.6846    4.4031 Q=    0.4100 A=    0.0000 R=    0.0000 C=    0.0000
 XYZ=   -6.1511   -5.2556   -2.0416 Q=   -0.8200 A=    0.0000 R=    0.0000 C=    0.0000
 XYZ=   -7.1496   -5.1991   -2.0388 Q=    0.4100 A=    0.0000 R=    0.0000 C=    0.0000
 XYZ=   -5.7966   -4.8490   -2.8836 Q=    0.4100 A=    0.0000 R=    0.0000 C=    0.0000
 XYZ=    4.1687    7.0921    0.5902 Q=   -0.8200 A=    0.0000 R=    0.0000 C=    0.0000
 XYZ=    3.3312    7.5438    0.8979 Q=    0.4100 A=    0.0000 R=    0.0000 C=    0.0000
 XYZ=    4.9407    7.7204    0.6860 Q=    0.4100 A=    0.0000 R=    0.0000 C=    0.0000
 XYZ=    5.7456   -0.3246   -6.9408 Q=   -0.8200 A=    0.0000 R=    0.0000 C=    0.0000
 XYZ=    6.2653   -0.2820   -6.0876 Q=    0.4100 A=    0.0000 R=    0.0000 C=    0.0000
 XYZ=    4.9844   -0.9646   -6.8358 Q=    0.4100 A=    0.0000 R=    0.0000 C=    0.0000
 XYZ=    3.7360   -5.6935   -7.3372 Q=   -0.8200 A=    0.0000 R=    0.0000 C=    0.0000
 XYZ=    4.4644   -5.5793   -8.0128 Q=    0.4100 A=    0.0000 R=    0.0000 C=    0.0000
 XYZ=    3.7730   -4.9430   -6.6772 Q=    0.4100 A=    0.0000 R=    0.0000 C=    0.0000
 XYZ=    0.8680    2.6686    8.7227 Q=   -0.8200 A=    0.0000 R=    0.0000 C=    0.0000
 XYZ=    1.0717    1.8972    8.1198 Q=    0.4100 A=    0.0000 R=    0.0000 C=    0.0000
 XYZ=   -0.0225    2.5273    9.1554 Q=    0.4100 A=    0.0000 R=    0.0000 C=    0.0000
 XYZ=    6.9574    1.7842    4.5200 Q=   -0.8200 A=    0.0000 R=    0.0000 C=    0.0000
 XYZ=    6.4304    2.1668    3.7610 Q=    0.4100 A=    0.0000 R=    0.0000 C=    0.0000
 XYZ=    6.4639    1.0066    4.9097 Q=    0.4100 A=    0.0000 R=    0.0000 C=    0.0000
 XYZ=    1.4930   -5.3159   -7.8711 Q=   -0.8200 A=    0.0000 R=    0.0000 C=    0.0000
 XYZ=    0.9036   -5.8104   -7.2322 Q=    0.4100 A=    0.0000 R=    0.0000 C=    0.0000
 XYZ=    2.4495   -5.5398   -7.6836 Q=    0.4100 A=    0.0000 R=    0.0000 C=    0.0000
 XYZ=    0.1686   -0.4601   -9.5105 Q=   -0.8200 A=    0.0000 R=    0.0000 C=    0.0000
 XYZ=    0.7196   -1.2592   -9.7509 Q=    0.4100 A=    0.0000 R=    0.0000 C=    0.0000
 XYZ=   -0.6873   -0.7601   -9.0891 Q=    0.4100 A=    0.0000 R=    0.0000 C=    0.0000
 XYZ=   -6.8582    1.4532    5.4376 Q=   -0.8200 A=    0.0000 R=    0.0000 C=    0.0000
 XYZ=   -5.9227    1.1062    5.3701 Q=    0.4100 A=    0.0000 R=    0.0000 C=    0.0000
 XYZ=   -7.4290    0.7828    5.9118 Q=    0.4100 A=    0.0000 R=    0.0000 C=    0.0000
 XYZ=    0.3830    9.5273   -3.0091 Q=   -0.8200 A=    0.0000 R=    0.0000 C=    0.0000
 XYZ=   -0.1104    9.9076   -3.7914 Q=    0.4100 A=    0.0000 R=    0.0000 C=    0.0000
 XYZ=    0.3729    8.5287   -3.0621 Q=    0.4100 A=    0.0000 R=    0.0000 C=    0.0000
 XYZ=    1.8435    5.4737    6.3584 Q=   -0.8200 A=    0.0000 R=    0.0000 C=    0.0000
 XYZ=    1.4655    6.2196    5.8099 Q=    0.4100 A=    0.0000 R=    0.0000 C=    0.0000
 XYZ=    1.2853    5.3470    7.1784 Q=    0.4100 A=    0.0000 R=    0.0000 C=    0.0000
 XYZ=   -3.7043    2.9612   -7.4224 Q=   -0.8200 A=    0.0000 R=    0.0000 C=    0.0000
 XYZ=   -4.5971    2.5203   -7.3302 Q=    0.4100 A=    0.0000 R=    0.0000 C=    0.0000
 XYZ=   -3.8037    3.9469   -7.2855 Q=    0.4100 A=    0.0000 R=    0.0000 C=    0.0000
 XYZ=   -7.7125    3.1141   -2.3445 Q=   -0.8200 A=    0.0000 R=    0.0000 C=    0.0000
 XYZ=   -7.0906    3.2335   -3.1184 Q=    0.4100 A=    0.0000 R=    0.0000 C=    0.0000
 XYZ=   -8.6229    2.8750   -2.6824 Q=    0.4100 A=    0.0000 R=    0.0000 C=    0.0000
 XYZ=   -0.4994    4.8460   -8.1047 Q=   -0.8200 A=    0.0000 R=    0.0000 C=    0.0000
 XYZ=   -1.1177    5.2929   -7.4583 Q=    0.4100 A=    0.0000 R=    0.0000 C=    0.0000
 XYZ=    0.2489    4.4110   -7.6038 Q=    0.4100 A=    0.0000 R=    0.0000 C=    0.0000
 XYZ=   -7.0188   -4.2999    2.0378 Q=   -0.8200 A=    0.0000 R=    0.0000 C=    0.0000
 XYZ=   -6.2403   -4.5716    1.4719 Q=    0.4100 A=    0.0000 R=    0.0000 C=    0.0000
 XYZ=   -6.6959   -4.0491    2.9504 Q=    0.4100 A=    0.0000 R=    0.0000 C=    0.0000
 XYZ=    4.8481    4.6542   -4.8250 Q=   -0.8200 A=    0.0000 R=    0.0000 C=    0.0000
 XYZ=    5.5997    5.3067   -4.7289 Q=    0.4100 A=    0.0000 R=    0.0000 C=    0.0000
 XYZ=    5.1133    3.9319   -5.4638 Q=    0.4100 A=    0.0000 R=    0.0000 C=    0.0000
 XYZ=    6.7580    0.0038   -4.6181 Q=   -0.8200 A=    0.0000 R=    0.0000 C=    0.0000
 XYZ=    7.1264    0.9274   -4.7252 Q=    0.4100 A=    0.0000 R=    0.0000 C=    0.0000
 XYZ=    7.4777   -0.6054   -4.2851 Q=    0.4100 A=    0.0000 R=    0.0000 C=    0.0000
 XYZ=    0.4606   -7.1508   -6.7821 Q=   -0.8200 A=    0.0000 R=    0.0000 C=    0.0000
 XYZ=   -0.0876   -7.6500   -6.1109 Q=    0.4100 A=    0.0000 R=    0.0000 C=    0.0000
 XYZ=    1.3820   -7.5381   -6.8142 Q=    0.4100 A=    0.0000 R=    0.0000 C=    0.0000
 XYZ=    0.3302    9.7163   -0.5170 Q=   -0.8200 A=    0.0000 R=    0.0000 C=    0.0000
 XYZ=    0.4318    9.7338   -1.5117 Q=    0.4100 A=    0.0000 R=    0.0000 C=    0.0000
 XYZ=    1.0693    9.1752   -0.1160 Q=    0.4100 A=    0.0000 R=    0.0000 C=    0.0000
 XYZ=   -5.7482   -0.9899    7.1745 Q=   -0.8200 A=    0.0000 R=    0.0000 C=    0.0000
 XYZ=   -5.4097   -0.5892    6.3231 Q=    0.4100 A=    0.0000 R=    0.0000 C=    0.0000
 XYZ=   -4.9982   -1.4542    7.6456 Q=    0.4100 A=    0.0000 R=    0.0000 C=    0.0000
 XYZ=   -1.5638   -6.4057   -7.6780 Q=   -0.8200 A=    0.0000 R=    0.0000 C=    0.0000
 XYZ=   -0.7240   -6.8607   -7.3817 Q=    0.4100 A=    0.0000 R=    0.0000 C=    0.0000
 XYZ=   -2.2042   -6.3562   -6.9115 Q=    0.4100 A=    0.0000 R=    0.0000 C=    0.0000
 XYZ=   -7.7432   -0.3340   -0.3228 Q=   -0.8200 A=    0.0000 R=    0.0000 C=    0.0000
 XYZ=   -8.0489   -0.9141   -1.0779 Q=    0.4100 A=    0.0000 R=    0.0000 C=    0.0000
 XYZ=   -7.5803   -0.8987    0.4863 Q=    0.4100 A=    0.0000 R=    0.0000 C=    0.0000
 XYZ=    8.1732   -4.2233    2.4029 Q=   -0.8200 A=    0.0000 R=    0.0000 C=    0.0000
 XYZ=    7.3166   -4.0174    2.8759 Q=    0.4100 A=    0.0000 R=    0.0000 C=    0.0000
 XYZ=    8.0426   -4.1201    1.4168 Q=    0.4100 A=    0.0000 R=    0.0000 C=    0.0000
 XYZ=    8.4253    0.8766    2.5286 Q=   -0.8200 A=    0.0000 R=    0.0000 C=    0.0000
 XYZ=    8.2412    1.1257    3.4795 Q=    0.4100 A=    0.0000 R=    0.0000 C=    0.0000
 XYZ=    7.5610    0.7056    2.0556 Q=    0.4100 A=    0.0000 R=    0.0000 C=    0.0000
 XYZ=    3.9143   -1.7482   -9.3212 Q=   -0.8200 A=    0.0000 R=    0.0000 C=    0.0000
 XYZ=    3.8116   -1.9003   -8.3382 Q=    0.4100 A=    0.0000 R=    0.0000 C=    0.0000
 XYZ=    4.5763   -2.3997   -9.6919 Q=    0.4100 A=    0.0000 R=    0.0000 C=    0.0000
 XYZ=   -3.5344   -8.4524    1.8464 Q=   -0.8200 A=    0.0000 R=    0.0000 C=    0.0000
 XYZ=   -4.3106   -8.3637    1.2221 Q=    0.4100 A=    0.0000 R=    0.0000 C=    0.0000
 XYZ=   -2.7989   -8.9570    1.3941 Q=    0.4100 A=    0.0000 R=    0.0000 C=    0.0000
 XYZ=    6.3964    6.0461    2.7457 Q=   -0.8200 A=    0.0000 R=    0.0000 C=    0.0000
 XYZ=    5.6789    5.5474    3.2321 Q=    0.4100 A=    0.0000 R=    0.0000 C=    0.0000
 XYZ=    7.0654    5.3976    2.3824 Q=    0.4100 A=    0.0000 R=    0.0000 C=    0.0000
 XYZ=    8.0407   -0.7354   -0.8938 Q=   -0.8200 A=    0.0000 R=    0.0000 C=    0.0000
 XYZ=    7.7703    0.2189   -1.0214 Q=    0.4100 A=    0.0000 R=    0.0000 C=    0.0000
 XYZ=    8.4762   -0.8417    0.0002 Q=    0.4100 A=    0.0000 R=    0.0000 C=    0.0000
 XYZ=    8.2791   -1.6009   -4.0191 Q=   -0.8200 A=    0.0000 R=    0.0000 C=    0.0000
 XYZ=    9.1829   -1.4183   -3.6322 Q=    0.4100 A=    0.0000 R=    0.0000 C=    0.0000
 XYZ=    7.7456   -2.1495   -3.3753 Q=    0.4100 A=    0.0000 R=    0.0000 C=    0.0000
 XYZ=   -1.8249   -1.4371    9.1349 Q=   -0.8200 A=    0.0000 R=    0.0000 C=    0.0000
 XYZ=   -1.2387   -1.6792    8.3618 Q=    0.4100 A=    0.0000 R=    0.0000 C=    0.0000
 XYZ=   -1.5488   -1.9624    9.9398 Q=    0.4100 A=    0.0000 R=    0.0000 C=    0.0000
 XYZ=   -1.8858   -9.6007    0.6522 Q=   -0.8200 A=    0.0000 R=    0.0000 C=    0.0000
 XYZ=   -1.3829  -10.3738    1.0388 Q=    0.4100 A=    0.0000 R=    0.0000 C=    0.0000
 XYZ=   -2.4989   -9.9280   -0.0668 Q=    0.4100 A=    0.0000 R=    0.0000 C=    0.0000
 XYZ=   -5.8441   -7.5395   -2.8531 Q=   -0.8200 A=    0.0000 R=    0.0000 C=    0.0000
 XYZ=   -5.9135   -6.6353   -2.4316 Q=    0.4100 A=    0.0000 R=    0.0000 C=    0.0000
 XYZ=   -6.7610   -7.9137   -2.9921 Q=    0.4100 A=    0.0000 R=    0.0000 C=    0.0000
 XYZ=   -1.6267   -8.6094   -5.7031 Q=   -0.8200 A=    0.0000 R=    0.0000 C=    0.0000
 XYZ=   -2.3532   -7.9223   -5.6877 Q=    0.4100 A=    0.0000 R=    0.0000 C=    0.0000
 XYZ=   -1.8292   -9.2930   -6.4043 Q=    0.4100 A=    0.0000 R=    0.0000 C=    0.0000
 XYZ=   -8.1137    1.5374    3.3224 Q=   -0.8200 A=    0.0000 R=    0.0000 C=    0.0000
 XYZ=   -7.6648    2.1202    2.6451 Q=    0.4100 A=    0.0000 R=    0.0000 C=    0.0000
 XYZ=   -7.6665    1.6519    4.2095 Q=    0.4100 A=    0.0000 R=    0.0000 C=    0.0000
 XYZ=   -4.2041    9.1463   -1.0086 Q=   -0.8200 A=    0.0000 R=    0.0000 C=    0.0000
 XYZ=   -4.6483    9.9446   -0.6018 Q=    0.4100 A=    0.0000 R=    0.0000 C=    0.0000
 XYZ=   -3.2549    9.0984   -0.6972 Q=    0.4100 A=    0.0000 R=    0.0000 C=    0.0000
 XYZ=    1.7035    1.4667   -9.6474 Q=   -0.8200 A=    0.0000 R=    0.0000 C=    0.0000
 XYZ=    1.3321    2.3672   -9.8738 Q=    0.4100 A=    0.0000 R=    0.0000 C=    0.0000
 XYZ=    0.9702    0.7873   -9.6744 Q=    0.4100 A=    0.0000 R=    0.0000 C=    0.0000
 XYZ=   -7.9246    5.0742   -0.9491 Q=   -0.8200 A=    0.0000 R=    0.0000 C=    0.0000
 XYZ=   -7.8666    5.8440   -1.5849 Q=    0.4100 A=    0.0000 R=    0.0000 C=    0.0000
 XYZ=   -7.8428    4.2162   -1.4563 Q=    0.4100 A=    0.0000 R=    0.0000 C=    0.0000
 XYZ=   -4.5157    8.9682   -3.3844 Q=   -0.8200 A=    0.0000 R=    0.0000 C=    0.0000
 XYZ=   -4.4607    9.2021   -2.4137 Q=    0.4100 A=    0.0000 R=    0.0000 C=    0.0000
 XYZ=   -4.2602    8.0098   -3.5112 Q=    0.4100 A=    0.0000 R=    0.0000 C=    0.0000
 XYZ=    0.7032    5.0700    8.3951 Q=   -0.8200 A=    0.0000 R=    0.0000 C=    0.0000
 XYZ=    1.0219    5.3618    9.2970 Q=    0.4100 A=    0.0000 R=    0.0000 C=    0.0000
 XYZ=    0.9435    4.1099    8.2513 Q=    0.4100 A=    0.0000 R=    0.0000 C=    0.0000
 XYZ=   -5.6011   -6.4412   -5.2591 Q=   -0.8200 A=    0.0000 R=    0.0000 C=    0.0000
 XYZ=   -5.5859   -5.4761   -4.9974 Q=    0.4100 A=    0.0000 R=    0.0000 C=    0.0000
 XYZ=   -5.7873   -7.0023   -4.4525 Q=    0.4100 A=    0.0000 R=    0.0000 C=    0.0000
 XYZ=    7.9539    4.1539    2.9083 Q=   -0.8200 A=    0.0000 R=    0.0000 C=    0.0000
 XYZ=    8.1793    4.0769    3.8796 Q=    0.4100 A=    0.0000 R=    0.0000 C=    0.0000
 XYZ=    7.2204    3.5120    2.6845 Q=    0.4100 A=    0.0000 R=    0.0000 C=    0.0000
 XYZ=   -0.1542    8.1315    5.9639 Q=   -0.8200 A=    0.0000 R=    0.0000 C=    0.0000
 XYZ=    0.4415    7.5642    5.3953 Q=    0.4100 A=    0.0000 R=    0.0000 C=    0.0000
 XYZ=   -1.0268    7.6633    6.1030 Q=    0.4100 A=    0.0000 R=    0.0000 C=    0.0000
 XYZ=   -3.3691   -7.0371   -6.2612 Q=   -0.8200 A=    0.0000 R=    0.0000 C=    0.0000
 XYZ=   -3.6284   -7.6306   -7.0232 Q=    0.4100 A=    0.0000 R=    0.0000 C=    0.0000
 XYZ=   -4.1616   -6.8888   -5.6697 Q=    0.4100 A=    0.0000 R=    0.0000 C=    0.0000
 XYZ=   -5.7828    7.7682    0.2929 Q=   -0.8200 A=    0.0000 R=    0.0000 C=    0.0000
 XYZ=   -5.1743    8.2351   -0.3487 Q=    0.4100 A=    0.0000 R=    0.0000 C=    0.0000
 XYZ=   -6.3661    8.4407    0.7485 Q=    0.4100 A=    0.0000 R=    0.0000 C=    0.0000
 XYZ=    6.8060    5.0919   -1.7711 Q=   -0.8200 A=    0.0000 R=    0.0000 C=    0.0000
 XYZ=    7.2420    4.3854   -1.2136 Q=    0.4100 A=    0.0000 R=    0.0000 C=    0.0000
 XYZ=    6.9509    5.9865   -1.3484 Q=    0.4100 A=    0.0000 R=    0.0000 C=    0.0000
 XYZ=   -0.4660   -7.4757    6.2821 Q=   -0.8200 A=    0.0000 R=    0.0000 C=    0.0000
 XYZ=   -1.2388   -7.1213    6.8086 Q=    0.4100 A=    0.0000 R=    0.0000 C=    0.0000
 XYZ=   -0.8062   -7.9647    5.4788 Q=    0.4100 A=    0.0000 R=    0.0000 C=    0.0000
 XYZ=   -5.5203   -6.5920    5.3933 Q=   -0.8200 A=    0.0000 R=    0.0000 C=    0.0000
 XYZ=   -4.8871   -6.1119    4.7861 Q=    0.4100 A=    0.0000 R=    0.0000 C=    0.0000
 XYZ=   -6.2980   -5.9985    5.6004 Q=    0.4100 A=    0.0000 R=    0.0000 C=    0.0000
 XYZ=   -3.2223    0.4327  -10.0288 Q=   -0.8200 A=    0.0000 R=    0.0000 C=    0.0000
 XYZ=   -2.7636   -0.3283   -9.5700 Q=    0.4100 A=    0.0000 R=    0.0000 C=    0.0000
 XYZ=   -4.1544    0.1630  -10.2705 Q=    0.4100 A=    0.0000 R=    0.0000 C=    0.0000
 XYZ=   -5.3768   -7.8265    0.5281 Q=   -0.8200 A=    0.0000 R=    0.0000 C=    0.0000
 XYZ=   -6.1478   -7.9173    1.1586 Q=    0.4100 A=    0.0000 R=    0.0000 C=    0.0000
 XYZ=   -5.5049   -8.4462   -0.2463 Q=    0.4100 A=    0.0000 R=    0.0000 C=    0.0000
 XYZ=    2.6379   -7.9431   -7.2597 Q=   -0.8200 A=    0.0000 R=    0.0000 C=    0.0000
 XYZ=    3.0110   -7.0333   -7.0778 Q=    0.4100 A=    0.0000 R=    0.0000 C=    0.0000
 XYZ=    3.3882   -8.5874   -7.4081 Q=    0.4100 A=    0.0000 R=    0.0000 C=    0.0000
 XYZ=   -1.4167  -10.3765   -4.0891 Q=   -0.8200 A=    0.0000 R=    0.0000 C=    0.0000
 XYZ=   -0.8080  -10.0667   -3.3586 Q=    0.4100 A=    0.0000 R=    0.0000 C=    0.0000
 XYZ=   -1.5951   -9.6194   -4.7176 Q=    0.4100 A=    0.0000 R=    0.0000 C=    0.0000
 XYZ=   -3.2287    2.7037   -9.8447 Q=   -0.8200 A=    0.0000 R=    0.0000 C=    0.0000
 XYZ=   -3.0713    2.9321   -8.8839 Q=    0.4100 A=    0.0000 R=    0.0000 C=    0.0000
 XYZ=   -3.2011    1.7108   -9.9600 Q=    0.4100 A=    0.0000 R=    0.0000 C=    0.0000
 XYZ=    7.4463   -6.5942    3.0715 Q=   -0.8200 A=    0.0000 R=    0.0000 C=    0.0000
 XYZ=    7.8528   -5.6809    3.0465 Q=    0.4100 A=    0.0000 R=    0.0000 C=    0.0000
 XYZ=    6.4549   -6.5150    3.1762 Q=    0.4100 A=    0.0000 R=    0.0000 C=    0.0000
 XYZ=   -1.5815    4.6043    8.4792 Q=   -0.8200 A=    0.0000 R=    0.0000 C=    0.0000
 XYZ=   -0.6524    4.9316    8.3068 Q=    0.4100 A=    0.0000 R=    0.0000 C=    0.0000
 XYZ=   -1.5437    3.7614    9.0160 Q=    0.4100 A=    0.0000 R=    0.0000 C=    0.0000
 XYZ=   -8.5963   -0.7155    3.1324 Q=   -0.8200 A=    0.0000 R=    0.0000 C=    0.0000
 XYZ=   -8.0614   -1.1283    2.3952 Q=    0.4100 A=    0.0000 R=    0.0000 C=    0.0000
 XYZ=   -8.3022    0.2306    3.2682 Q=    0.4100 A=    0.0000 R=    0.0000 C=    0.0000
 XYZ=    8.3375    3.4801   -0.7050 Q=   -0.8200 A=    0.0000 R=    0.0000 C=    0.0000
 XYZ=    7.9489    2.5887   -0.4717 Q=    0.4100 A=    0.0000 R=    0.0000 C=    0.0000
 XYZ=    8.8395    3.8408    0.0811 Q=    0.4100 A=    0.0000 R=    0.0000 C=    0.0000
 XYZ=    0.9202    3.7003  -10.1093 Q=   -0.8200 A=    0.0000 R=    0.0000 C=    0.0000
 XYZ=    0.3520    3.7652   -9.2890 Q=    0.4100 A=    0.0000 R=    0.0000 C=    0.0000
 XYZ=    1.4671    4.5324  -10.2025 Q=    0.4100 A=    0.0000 R=    0.0000 C=    0.0000
 XYZ=    0.1625   -4.2614    9.6172 Q=   -0.8200 A=    0.0000 R=    0.0000 C=    0.0000
 XYZ=    0.4789   -4.0652    8.6890 Q=    0.4100 A=    0.0000 R=    0.0000 C=    0.0000
 XYZ=    0.8817   -4.0261   10.2710 Q=    0.4100 A=    0.0000 R=    0.0000 C=    0.0000
 XYZ=    1.5016   -2.2513  -10.2349 Q=   -0.8200 A=    0.0000 R=    0.0000 C=    0.0000
 XYZ=    2.3535   -1.9439   -9.8108 Q=    0.4100 A=    0.0000 R=    0.0000 C=    0.0000
 XYZ=    1.5693   -2.1535  -11.2278 Q=    0.4100 A=    0.0000 R=    0.0000 C=    0.0000
 XYZ=   -6.4548    5.2675    4.4543 Q=   -0.8200 A=    0.0000 R=    0.0000 C=    0.0000
 XYZ=   -7.1801    5.9382    4.2990 Q=    0.4100 A=    0.0000 R=    0.0000 C=    0.0000
 XYZ=   -6.7773    4.5700    5.0942 Q=    0.4100 A=    0.0000 R=    0.0000 C=    0.0000
 XYZ=   -2.1055    7.1574    6.3853 Q=   -0.8200 A=    0.0000 R=    0.0000 C=    0.0000
 XYZ=   -2.7407    7.5196    5.7032 Q=    0.4100 A=    0.0000 R=    0.0000 C=    0.0000
 XYZ=   -2.6212    6.7951    7.1617 Q=    0.4100 A=    0.0000 R=    0.0000 C=    0.0000
 XYZ=   -3.7307    5.8264    7.8300 Q=   -0.8200 A=    0.0000 R=    0.0000 C=    0.0000
 XYZ=   -4.3161    5.7489    7.0230 Q=    0.4100 A=    0.0000 R=    0.0000 C=    0.0000
 XYZ=   -3.0588    5.0857    7.8267 Q=    0.4100 A=    0.0000 R=    0.0000 C=    0.0000
 XYZ=    0.5219   -4.4247   -9.7745 Q=   -0.8200 A=    0.0000 R=    0.0000 C=    0.0000
 XYZ=    0.9926   -3.5440   -9.8295 Q=    0.4100 A=    0.0000 R=    0.0000 C=    0.0000
 XYZ=    0.8611   -4.9350   -8.9842 Q=    0.4100 A=    0.0000 R=    0.0000 C=    0.0000
 XYZ=    6.3336    3.0816   -6.3075 Q=   -0.8200 A=    0.0000 R=    0.0000 C=    0.0000
 XYZ=    6.5274    3.9545   -6.7552 Q=    0.4100 A=    0.0000 R=    0.0000 C=    0.0000
 XYZ=    7.0305    2.9010   -5.6134 Q=    0.4100 A=    0.0000 R=    0.0000 C=    0.0000
 XYZ=   -6.7101    3.8790   -6.6899 Q=   -0.8200 A=    0.0000 R=    0.0000 C=    0.0000
 XYZ=   -6.3148    4.5062   -7.3610 Q=    0.4100 A=    0.0000 R=    0.0000 C=    0.0000
 XYZ=   -6.2849    2.9788   -6.7841 Q=    0.4100 A=    0.0000 R=    0.0000 C=    0.0000
 XYZ=   -6.6074   -3.1748   -6.5115 Q=   -0.8200 A=    0.0000 R=    0.0000 C=    0.0000
 XYZ=   -6.1317   -3.6496   -7.2520 Q=    0.4100 A=    0.0000 R=    0.0000 C=    0.0000
 XYZ=   -7.2420   -2.5057   -6.8982 Q=    0.4100 A=    0.0000 R=    0.0000 C=    0.0000
 XYZ=    6.1473   -4.2309   -6.9450 Q=   -0.8200 A=    0.0000 R=    0.0000 C=    0.0000
 XYZ=    6.9216   -4.6597   -6.4797 Q=    0.4100 A=    0.0000 R=    0.0000 C=    0.0000
 XYZ=    6.0328   -4.6419   -7.8495 Q=    0.4100 A=    0.0000 R=    0.0000 C=    0.0000
 XYZ=    4.6184   -1.3724    8.0766 Q=   -0.8200 A=    0.0000 R=    0.0000 C=    0.0000
 XYZ=    4.7527   -1.1809    9.0489 Q=    0.4100 A=    0.0000 R=    0.0000 C=    0.0000
 XYZ=    5.3947   -1.0163    7.5565 Q=    0.4100 A=    0.0000 R=    0.0000 C=    0.0000
 XYZ=   -5.5209   -9.1725   -1.2350 Q=   -0.8200 A=    0.0000 R=    0.0000 C=    0.0000
 XYZ=   -6.2448   -9.8168   -1.4814 Q=    0.4100 A=    0.0000 R=    0.0000 C=    0.0000
 XYZ=   -5.5336   -8.3987   -1.8684 Q=    0.4100 A=    0.0000 R=    0.0000 C=    0.0000
 XYZ=   -3.8273   -2.5273    8.2657 Q=   -0.8200 A=    0.0000 R=    0.0000 C=    0.0000
 XYZ=   -3.1751   -1.8504    8.6072 Q=    0.4100 A=    0.0000 R=    0.0000 C=    0.0000
 XYZ=   -3.6894   -3.3942    8.7448 Q=    0.4100 A=    0.0000 R=    0.0000 C=    0.0000
 XYZ=   -1.5353   -3.3325   -9.9221 Q=   -0.8200 A=    0.0000 R=    0.0000 C=    0.0000
 XYZ=   -0.6365   -3.7151   -9.7082 Q=    0.4100 A=    0.0000 R=    0.0000 C=    0.0000
 XYZ=   -1.6506   -3.2871  -10.9145 Q=    0.4100 A=    0.0000 R=    0.0000 C=    0.0000
 XYZ=   -5.2005    6.4569    5.9912 Q=   -0.8200 A=    0.0000 R=    0.0000 C=    0.0000
 XYZ=   -5.9102    7.0289    6.4026 Q=    0.4100 A=    0.0000 R=    0.0000 C=    0.0000
 XYZ=   -5.6140    5.8488    5.3135 Q=    0.4100 A=    0.0000 R=    0.0000 C=    0.0000
 XYZ=   -7.3079    3.8907    6.0185 Q=   -0.8200 A=    0.0000 R=    0.0000 C=    0.0000
 XYZ=   -7.1394    3.9493    7.0024 Q=    0.4100 A=    0.0000 R=    0.0000 C=    0.0000
 XYZ=   -6.9956    3.0033    5.6791 Q=    0.4100 A=    0.0000 R=    0.0000 C=    0.0000
 XYZ=   -1.1802    0.3929  -11.2401 Q=   -0.8200 A=    0.0000 R=    0.0000 C=    0.0000
 XYZ=   -0.6378   -0.0813  -10.5466 Q=    0.4100 A=    0.0000 R=    0.0000 C=    0.0000
 XYZ=   -2.1251    0.4779  -10.9236 Q=    0.4100 A=    0.0000 R=    0.0000 C=    0.0000
 XYZ=   -1.2702    2.6353    9.7408 Q=   -0.8200 A=    0.0000 R=    0.0000 C=    0.0000
 XYZ=   -1.8942    1.8868    9.5162 Q=    0.4100 A=    0.0000 R=    0.0000 C=    0.0000
 XYZ=   -1.0728    2.6220   10.7210 Q=    0.4100 A=    0.0000 R=    0.0000 C=    0.0000
 XYZ=   -2.4990    0.7516    9.4906 Q=   -0.8200 A=    0.0000 R=    0.0000 C=    0.0000
 XYZ=   -2.1314   -0.1784    9.4813 Q=    0.4100 A=    0.0000 R=    0.0000 C=    0.0000
 XYZ=   -3.3487    0.7689   10.0176 Q=    0.4100 A=    0.0000 R=    0.0000 C=    0.0000
 XYZ=    7.7904    2.4748   -4.4187 Q=   -0.8200 A=    0.0000 R=    0.0000 C=    0.0000
 XYZ=    7.9109    3.4358   -4.1695 Q=    0.4100 A=    0.0000 R=    0.0000 C=    0.0000
 XYZ=    8.4744    1.9196   -3.9455 Q=    0.4100 A=    0.0000 R=    0.0000 C=    0.0000
 XYZ=    7.7935   -6.1843   -3.5948 Q=   -0.8200 A=    0.0000 R=    0.0000 C=    0.0000
 XYZ=    7.6404   -6.1036   -4.5797 Q=    0.4100 A=    0.0000 R=    0.0000 C=    0.0000
 XYZ=    8.6852   -6.6058   -3.4296 Q=    0.4100 A=    0.0000 R=    0.0000 C=    0.0000
 XYZ=   -2.4056   -6.6062    7.2959 Q=   -0.8200 A=    0.0000 R=    0.0000 C=    0.0000
 XYZ=   -2.0859   -6.3368    8.2044 Q=    0.4100 A=    0.0000 R=    0.0000 C=    0.0000
 XYZ=   -3.3479   -6.9354    7.3583 Q=    0.4100 A=    0.0000 R=    0.0000 C=    0.0000
 XYZ=   -2.8765    9.3438   -5.2034 Q=   -0.8200 A=    0.0000 R=    0.0000 C=    0.0000
 XYZ=   -3.4690    9.0270   -4.4627 Q=    0.4100 A=    0.0000 R=    0.0000 C=    0.0000
 XYZ=   -2.6283    8.5697   -5.7859 Q=    0.4100 A=    0.0000 R=    0.0000 C=    0.0000
 XYZ=   -2.8393    9.3198    3.1733 Q=   -0.8200 A=    0.0000 R=    0.0000 C=    0.0000
 XYZ=   -3.3265    9.0058    3.9882 Q=    0.4100 A=    0.0000 R=    0.0000 C=    0.0000
 XYZ=   -3.3406   10.0784    2.7569 Q=    0.4100 A=    0.0000 R=    0.0000 C=    0.0000
 XYZ=   -3.1698   -9.7436    3.7804 Q=   -0.8200 A=    0.0000 R=    0.0000 C=    0.0000
 XYZ=   -2.3369   -9.3531    4.1724 Q=    0.4100 A=    0.0000 R=    0.0000 C=    0.0000
 XYZ=   -3.4026   -9.2560    2.9389 Q=    0.4100 A=    0.0000 R=    0.0000 C=    0.0000
 XYZ=   -0.5013    9.4628    4.0148 Q=   -0.8200 A=    0.0000 R=    0.0000 C=    0.0000
 XYZ=   -1.4212    9.4482    3.6229 Q=    0.4100 A=    0.0000 R=    0.0000 C=    0.0000
 XYZ=   -0.4913    8.9311    4.8617 Q=    0.4100 A=    0.0000 R=    0.0000 C=    0.0000
 XYZ=    3.0811   -0.0277  -10.8740 Q=   -0.8200 A=    0.0000 R=    0.0000 C=    0.0000
 XYZ=    2.4572    0.5603  -10.3592 Q=    0.4100 A=    0.0000 R=    0.0000 C=    0.0000
 XYZ=    3.6529   -0.5453  -10.2374 Q=    0.4100 A=    0.0000 R=    0.0000 C=    0.0000
 XYZ=    8.0691    4.7014   -3.7198 Q=   -0.8200 A=    0.0000 R=    0.0000 C=    0.0000
 XYZ=    7.5837    4.7819   -2.8492 Q=    0.4100 A=    0.0000 R=    0.0000 C=    0.0000
 XYZ=    9.0490    4.6017   -3.5470 Q=    0.4100 A=    0.0000 R=    0.0000 C=    0.0000
 XYZ=    8.3352    3.3816    5.2135 Q=   -0.8200 A=    0.0000 R=    0.0000 C=    0.0000
 XYZ=    7.7357    2.6607    4.8656 Q=    0.4100 A=    0.0000 R=    0.0000 C=    0.0000
 XYZ=    9.1969    2.9785    5.5218 Q=    0.4100 A=    0.0000 R=    0.0000 C=    0.0000
 XYZ=    7.2348   -1.8799   -7.9168 Q=   -0.8200 A=    0.0000 R=    0.0000 C=    0.0000
 XYZ=    6.6410   -1.1141   -7.6700 Q=    0.4100 A=    0.0000 R=    0.0000 C=    0.0000
 XYZ=    6.9524   -2.6964   -7.4131 Q=    0.4100 A=    0.0000 R=    0.0000 C=    0.0000
 XYZ=   -3.7436    6.2371   -7.5561 Q=   -0.8200 A=    0.0000 R=    0.0000 C=    0.0000
 XYZ=   -3.4947    6.7672   -8.3667 Q=    0.4100 A=    0.0000 R=    0.0000 C=    0.0000
 XYZ=   -4.7350    6.1082   -7.5337 Q=    0.4100 A=    0.0000 R=    0.0000 C=    0.0000
 XYZ=   -9.1602    4.5353    2.4373 Q=   -0.8200 A=    0.0000 R=    0.0000 C=    0.0000
 XYZ=   -8.6646    3.7186    2.1413 Q=    0.4100 A=    0.0000 R=    0.0000 C=    0.0000
 XYZ=   -9.9699    4.2635    2.9575 Q=    0.4100 A=    0.0000 R=    0.0000 C=    0.0000
 XYZ=    9.9275   -0.8456   -2.3061 Q=   -0.8200 A=    0.0000 R=    0.0000 C=    0.0000
 XYZ=    9.1463   -0.8019   -1.6831 Q=    0.4100 A=    0.0000 R=    0.0000 C=    0.0000
 XYZ=   10.7285   -1.1850   -1.8128 Q=    0.4100 A=    0.0000 R=    0.0000 C=    0.0000
 XYZ=    8.6456   -3.3796   -5.5713 Q=   -0.8200 A=    0.0000 R=    0.0000 C=    0.0000
 XYZ=    8.4035   -2.6532   -4.9281 Q=    0.4100 A=    0.0000 R=    0.0000 C=    0.0000
 XYZ=    9.1140   -2.9831   -6.3609 Q=    0.4100 A=    0.0000 R=    0.0000 C=    0.0000
 XYZ=    6.4383    7.8577    1.1800 Q=   -0.8200 A=    0.0000 R=    0.0000 C=    0.0000
 XYZ=    7.0152    8.5815    1.5587 Q=    0.4100 A=    0.0000 R=    0.0000 C=    0.0000
 XYZ=    6.3456    7.1207    1.8495 Q=    0.4100 A=    0.0000 R=    0.0000 C=    0.0000
 XYZ=  -10.2188    0.4632   -0.1586 Q=   -0.8200 A=    0.0000 R=    0.0000 C=    0.0000
 XYZ=  -10.4527    1.4341   -0.2099 Q=    0.4100 A=    0.0000 R=    0.0000 C=    0.0000
 XYZ=   -9.2370    0.3484   -0.3104 Q=    0.4100 A=    0.0000 R=    0.0000 C=    0.0000
 XYZ=   -3.6071  -10.5294   -0.8324 Q=   -0.8200 A=    0.0000 R=    0.0000 C=    0.0000
 XYZ=   -3.5871  -11.1075   -1.6481 Q=    0.4100 A=    0.0000 R=    0.0000 C=    0.0000
 XYZ=   -4.4137   -9.9389   -0.8621 Q=    0.4100 A=    0.0000 R=    0.0000 C=    0.0000
 XYZ=    9.4909   -1.0200    1.1863 Q=   -0.8200 A=    0.0000 R=    0.0000 C=    0.0000
 XYZ=    9.4393   -1.8373    1.7602 Q=    0.4100 A=    0.0000 R=    0.0000 C=    0.0000
 XYZ=    9.1895   -0.2242    1.7116 Q=    0.4100 A=    0.0000 R=    0.0000 C=    0.0000
 XYZ=   -3.8377    8.0850    5.1245 Q=   -0.8200 A=    0.0000 R=    0.0000 C=    0.0000
 XYZ=   -4.4656    7.4230    5.5339 Q=    0.4100 A=    0.0000 R=    0.0000 C=    0.0000
 XYZ=   -4.0155    8.9925    5.5051 Q=    0.4100 A=    0.0000 R=    0.0000 C=    0.0000
 XYZ=    2.0333    3.1010   10.6479 Q=   -0.8200 A=    0.0000 R=    0.0000 C=    0.0000
 XYZ=    2.9752    3.3538   10.4266 Q=    0.4100 A=    0.0000 R=    0.0000 C=    0.0000
 XYZ=    1.5524    2.8413    9.8104 Q=    0.4100 A=    0.0000 R=    0.0000 C=    0.0000
 XYZ=    7.4809   -7.8732    1.0394 Q=   -0.8200 A=    0.0000 R=    0.0000 C=    0.0000
 XYZ=    7.4517   -7.3111    1.8659 Q=    0.4100 A=    0.0000 R=    0.0000 C=    0.0000
 XYZ=    7.5479   -8.8378    1.2945 Q=    0.4100 A=    0.0000 R=    0.0000 C=    0.0000
 XYZ=   -7.8674   -0.3752    6.6227 Q=   -0.8200 A=    0.0000 R=    0.0000 C=    0.0000
 XYZ=   -8.3888   -1.0903    6.1570 Q=    0.4100 A=    0.0000 R=    0.0000 C=    0.0000
 XYZ=   -6.9516   -0.7157    6.8358 Q=    0.4100 A=    0.0000 R=    0.0000 C=    0.0000
 XYZ=   -6.7861   -3.0330    6.1099 Q=   -0.8200 A=    0.0000 R=    0.0000 C=    0.0000
 XYZ=   -7.6787   -2.7098    5.7955 Q=    0.4100 A=    0.0000 R=    0.0000 C=    0.0000
 XYZ=   -6.4891   -2.4841    6.8913 Q=    0.4100 A=    0.0000 R=    0.0000 C=    0.0000
 XYZ=   -3.6967   -4.6251  -10.1610 Q=   -0.8200 A=    0.0000 R=    0.0000 C=    0.0000
 XYZ=   -3.6412   -4.5995  -11.1592 Q=    0.4100 A=    0.0000 R=    0.0000 C=    0.0000
 XYZ=   -2.9251   -4.1223   -9.7714 Q=    0.4100 A=    0.0000 R=    0.0000 C=    0.0000
 XYZ=   -1.2690    5.9107   -9.9910 Q=   -0.8200 A=    0.0000 R=    0.0000 C=    0.0000
 XYZ=   -1.5823    5.2054  -10.6270 Q=    0.4100 A=    0.0000 R=    0.0000 C=    0.0000
 XYZ=   -0.9974    5.4844   -9.1281 Q=    0.4100 A=    0.0000 R=    0.0000 C=    0.0000
 XYZ=    5.4214    5.4025    6.9729 Q=   -0.8200 A=    0.0000 R=    0.0000 C=    0.0000
 XYZ=    6.0089    6.2112    7.0054 Q=    0.4100 A=    0.0000 R=    0.0000 C=    0.0000
 XYZ=    5.9872    4.5784    6.9989 Q=    0.4100 A=    0.0000 R=    0.0000 C=    0.0000
 XYZ=    6.7150   -0.3565    7.2758 Q=   -0.8200 A=    0.0000 R=    0.0000 C=    0.0000
 XYZ=    6.8625   -0.0091    8.2018 Q=    0.4100 A=    0.0000 R=    0.0000 C=    0.0000
 XYZ=    7.3482   -1.1098    7.0977 Q=    0.4100 A=    0.0000 R=    0.0000 C=    0.0000
 XYZ=    0.1298   11.8293    0.5475 Q=   -0.8200 A=    0.0000 R=    0.0000 C=    0.0000
 XYZ=    1.0427   12.2292    0.6295 Q=    0.4100 A=    0.0000 R=    0.0000 C=    0.0000
 XYZ=    0.1826   10.9846    0.0149 Q=    0.4100 A=    0.0000 R=    0.0000 C=    0.0000
 XYZ=    6.6513    6.0203   -4.7695 Q=   -0.8200 A=    0.0000 R=    0.0000 C=    0.0000
 XYZ=    7.2892    5.5021   -4.1998 Q=    0.4100 A=    0.0000 R=    0.0000 C=    0.0000
 XYZ=    6.8206    5.8126   -5.7329 Q=    0.4100 A=    0.0000 R=    0.0000 C=    0.0000
 XYZ=   -2.6846   -6.9216   -9.6342 Q=   -0.8200 A=    0.0000 R=    0.0000 C=    0.0000
 XYZ=   -3.3560   -6.2743   -9.9952 Q=    0.4100 A=    0.0000 R=    0.0000 C=    0.0000
 XYZ=   -2.1751   -6.4922   -8.8886 Q=    0.4100 A=    0.0000 R=    0.0000 C=    0.0000
 XYZ=   -8.6638   -5.9963    2.4228 Q=   -0.8200 A=    0.0000 R=    0.0000 C=    0.0000
 XYZ=   -9.3697   -6.1887    1.7411 Q=    0.4100 A=    0.0000 R=    0.0000 C=    0.0000
 XYZ=   -8.0613   -5.2736    2.0839 Q=    0.4100 A=    0.0000 R=    0.0000 C=    0.0000
 XYZ=    5.4347    2.3957    8.5110 Q=   -0.8200 A=    0.0000 R=    0.0000 C=    0.0000
 XYZ=    6.1154    2.9557    8.0387 Q=    0.4100 A=    0.0000 R=    0.0000 C=    0.0000
 XYZ=    4.9444    2.9580    9.1769 Q=    0.4100 A=    0.0000 R=    0.0000 C=    0.0000
 XYZ=   -6.7517    0.1501   -8.5329 Q=   -0.8200 A=    0.0000 R=    0.0000 C=    0.0000
 XYZ=   -7.3138   -0.6455   -8.3067 Q=    0.4100 A=    0.0000 R=    0.0000 C=    0.0000
 XYZ=   -6.1677   -0.0661   -9.3153 Q=    0.4100 A=    0.0000 R=    0.0000 C=    0.0000
 XYZ=   -5.7380   -6.9291   -7.6272 Q=   -0.8200 A=    0.0000 R=    0.0000 C=    0.0000
 XYZ=   -5.1176   -7.6365   -7.9659 Q=    0.4100 A=    0.0000 R=    0.0000 C=    0.0000
 XYZ=   -5.5649   -6.7717   -6.6549 Q=    0.4100 A=    0.0000 R=    0.0000 C=    0.0000
 XYZ=   -3.0163  -11.6409   -2.8368 Q=   -0.8200 A=    0.0000 R=    0.0000 C=    0.0000
 XYZ=   -2.3952  -11.0184   -3.3132 Q=    0.4100 A=    0.0000 R=    0.0000 C=    0.0000
 XYZ=   -3.4368  -12.2626   -3.4977 Q=    0.4100 A=    0.0000 R=    0.0000 C=    0.0000
 XYZ=    7.2004    7.3580   -1.0249 Q=   -0.8200 A=    0.0000 R=    0.0000 C=    0.0000
 XYZ=    7.3559    8.2195   -1.5082 Q=    0.4100 A=    0.0000 R=    0.0000 C=    0.0000
 XYZ=    7.0196    7.5455   -0.0594 Q=    0.4100 A=    0.0000 R=    0.0000 C=    0.0000
 XYZ=   -8.5379   -5.0002   -2.2484 Q=   -0.8200 A=    0.0000 R=    0.0000 C=    0.0000
 XYZ=   -9.0535   -4.2527   -1.8296 Q=    0.4100 A=    0.0000 R=    0.0000 C=    0.0000
 XYZ=   -9.1691   -5.7212   -2.5346 Q=    0.4100 A=    0.0000 R=    0.0000 C=    0.0000
 XYZ=   10.2615   -3.1188    2.2442 Q=   -0.8200 A=    0.0000 R=    0.0000 C=    0.0000
 XYZ=    9.4231   -3.6181    2.4630 Q=    0.4100 A=    0.0000 R=    0.0000 C=    0.0000
 XYZ=   10.8752   -3.7107    1.7216 Q=    0.4100 A=    0.0000 R=    0.0000 C=    0.0000
 XYZ=    9.0980   -7.2801   -0.6275 Q=   -0.8200 A=    0.0000 R=    0.0000 C=    0.0000
 XYZ=    8.3389   -7.4295    0.0062 Q=    0.4100 A=    0.0000 R=    0.0000 C=    0.0000
 XYZ=    9.9098   -7.7596   -0.2941 Q=    0.4100 A=    0.0000 R=    0.0000 C=    0.0000
 XYZ=  -10.1016    4.4490    0.2076 Q=   -0.8200 A=    0.0000 R=    0.0000 C=    0.0000
 XYZ=   -9.3887    4.7752   -0.4133 Q=    0.4100 A=    0.0000 R=    0.0000 C=    0.0000
 XYZ=   -9.8225    4.6171    1.1531 Q=    0.4100 A=    0.0000 R=    0.0000 C=    0.0000
 XYZ=   -8.7764   -2.0711    5.1932 Q=   -0.8200 A=    0.0000 R=    0.0000 C=    0.0000
 XYZ=   -8.6760   -1.5818    4.3268 Q=    0.4100 A=    0.0000 R=    0.0000 C=    0.0000
 XYZ=   -9.5399   -2.7134    5.1266 Q=    0.4100 A=    0.0000 R=    0.0000 C=    0.0000
 XYZ=   -1.6551   -5.8183    9.3832 Q=   -0.8200 A=    0.0000 R=    0.0000 C=    0.0000
 XYZ=   -0.7419   -5.4126    9.3449 Q=    0.4100 A=    0.0000 R=    0.0000 C=    0.0000
 XYZ=   -2.3426   -5.0920    9.3878 Q=    0.4100 A=    0.0000 R=    0.0000 C=    0.0000
 XYZ=    7.9701   -5.5460   -5.9330 Q=   -0.8200 A=    0.0000 R=    0.0000 C=    0.0000
 XYZ=    8.3901   -4.6776   -5.6693 Q=    0.4100 A=    0.0000 R=    0.0000 C=    0.0000
 XYZ=    8.6518   -6.1229   -6.3828 Q=    0.4100 A=    0.0000 R=    0.0000 C=    0.0000
 XYZ=   -5.4494   -4.6747   -8.5549 Q=   -0.8200 A=    0.0000 R=    0.0000 C=    0.0000
 XYZ=   -4.7053   -4.6643   -9.2229 Q=    0.4100 A=    0.0000 R=    0.0000 C=    0.0000
 XYZ=   -5.5750   -5.6051   -8.2105 Q=    0.4100 A=    0.0000 R=    0.0000 C=    0.0000
 XYZ=    0.9721   -9.1310   -9.0259 Q=   -0.8200 A=    0.0000 R=    0.0000 C=    0.0000
 XYZ=    1.1322   -8.8384   -9.9686 Q=    0.4100 A=    0.0000 R=    0.0000 C=    0.0000
 XYZ=    1.2390   -8.3984   -8.3996 Q=    0.4100 A=    0.0000 R=    0.0000 C=    0.0000
 XYZ=    4.3689    5.8931    9.1049 Q=   -0.8200 A=    0.0000 R=    0.0000 C=    0.0000
 XYZ=    5.1341    6.4611    9.4079 Q=    0.4100 A=    0.0000 R=    0.0000 C=    0.0000
 XYZ=    4.5495    5.5559    8.1809 Q=    0.4100 A=    0.0000 R=    0.0000 C=    0.0000
 XYZ=   -0.9311  -11.5485    1.7287 Q=   -0.8200 A=    0.0000 R=    0.0000 C=    0.0000
 XYZ=   -0.8468  -12.4070    1.2228 Q=    0.4100 A=    0.0000 R=    0.0000 C=    0.0000
 XYZ=   -1.7251  -11.5956    2.3348 Q=    0.4100 A=    0.0000 R=    0.0000 C=    0.0000
 XYZ=   -4.5107   -7.4617    7.3903 Q=   -0.8200 A=    0.0000 R=    0.0000 C=    0.0000
 XYZ=   -4.9854   -7.0562    6.6092 Q=    0.4100 A=    0.0000 R=    0.0000 C=    0.0000
 XYZ=   -4.8247   -7.0261    8.2339 Q=    0.4100 A=    0.0000 R=    0.0000 C=    0.0000
 XYZ=   -7.0205   -7.7736    2.1002 Q=   -0.8200 A=    0.0000 R=    0.0000 C=    0.0000
 XYZ=   -7.6281   -6.9962    2.2628 Q=    0.4100 A=    0.0000 R=    0.0000 C=    0.0000
 XYZ=   -6.8017   -8.2135    2.9712 Q=    0.4100 A=    0.0000 R=    0.0000 C=    0.0000
 XYZ=    9.6256    4.0560    1.1441 Q=   -0.8200 A=    0.0000 R=    0.0000 C=    0.0000
 XYZ=    9.0152    4.1510    1.9306 Q=    0.4100 A=    0.0000 R=    0.0000 C=    0.0000
 XYZ=   10.3487    4.7447    1.1983 Q=    0.4100 A=    0.0000 R=    0.0000 C=    0.0000
 XYZ=    9.7682   -5.0222   -0.6053 Q=   -0.8200 A=    0.0000 R=    0.0000 C=    0.0000
 XYZ=    9.8300   -4.7681   -1.5705 Q=    0.4100 A=    0.0000 R=    0.0000 C=    0.0000
 XYZ=    9.4908   -5.9801   -0.5299 Q=    0.4100 A=    0.0000 R=    0.0000 C=    0.0000
 XYZ=    0.2579   11.5580    3.1262 Q=   -0.8200 A=    0.0000 R=    0.0000 C=    0.0000
 XYZ=    0.1458   10.6290    3.4789 Q=    0.4100 A=    0.0000 R=    0.0000 C=    0.0000
 XYZ=    0.1574   11.5512    2.1313 Q=    0.4100 A=    0.0000 R=    0.0000 C=    0.0000
 XYZ=   -1.2609   -2.8440   10.8265 Q=   -0.8200 A=    0.0000 R=    0.0000 C=    0.0000
 XYZ=   -0.7400   -3.4332   10.2088 Q=    0.4100 A=    0.0000 R=    0.0000 C=    0.0000
 XYZ=   -2.1196   -3.2942   11.0713 Q=    0.4100 A=    0.0000 R=    0.0000 C=    0.0000
 XYZ=   10.4463    1.9737    1.6561 Q=   -0.8200 A=    0.0000 R=    0.0000 C=    0.0000
 XYZ=    9.6196    1.4893    1.9422 Q=    0.4100 A=    0.0000 R=    0.0000 C=    0.0000
 XYZ=   10.2250    2.9318    1.4742 Q=    0.4100 A=    0.0000 R=    0.0000 C=    0.0000
 XYZ=    7.1765    3.5731    7.3228 Q=   -0.8200 A=    0.0000 R=    0.0000 C=    0.0000
 XYZ=    7.7182    3.3387    6.5155 Q=    0.4100 A=    0.0000 R=    0.0000 C=    0.0000
 XYZ=    7.7884    3.7753    8.0875 Q=    0.4100 A=    0.0000 R=    0.0000 C=    0.0000
 XYZ=    9.4986    1.2448   -3.2430 Q=   -0.8200 A=    0.0000 R=    0.0000 C=    0.0000
 XYZ=    9.8630    1.9627   -2.6499 Q=    0.4100 A=    0.0000 R=    0.0000 C=    0.0000
 XYZ=    9.6941    0.3498   -2.8419 Q=    0.4100 A=    0.0000 R=    0.0000 C=    0.0000
 XYZ=   -6.5875   -8.5906    4.4591 Q=   -0.8200 A=    0.0000 R=    0.0000 C=    0.0000
 XYZ=   -6.0408   -7.8326    4.8150 Q=    0.4100 A=    0.0000 R=    0.0000 C=    0.0000
 XYZ=   -6.0395   -9.4272    4.4626 Q=    0.4100 A=    0.0000 R=    0.0000 C=    0.0000
 XYZ=  -10.6253    1.3740    3.5498 Q=   -0.8200 A=    0.0000 R=    0.0000 C=    0.0000
 XYZ=   -9.6292    1.4619    3.5460 Q=    0.4100 A=    0.0000 R=    0.0000 C=    0.0000
 XYZ=  -10.8816    0.4713    3.2041 Q=    0.4100 A=    0.0000 R=    0.0000 C=    0.0000
 XYZ=   -2.5370    5.3100   10.7631 Q=   -0.8200 A=    0.0000 R=    0.0000 C=    0.0000
 XYZ=   -2.5100    6.3028   10.6463 Q=    0.4100 A=    0.0000 R=    0.0000 C=    0.0000
 XYZ=   -2.4296    4.8667    9.8732 Q=    0.4100 A=    0.0000 R=    0.0000 C=    0.0000
 XYZ=   -5.4909    3.5332  -10.2653 Q=   -0.8200 A=    0.0000 R=    0.0000 C=    0.0000
 XYZ=   -6.1992    2.8361  -10.1533 Q=    0.4100 A=    0.0000 R=    0.0000 C=    0.0000
 XYZ=   -4.5915    3.1207  -10.1202 Q=    0.4100 A=    0.0000 R=    0.0000 C=    0.0000
 XYZ=   -8.5526    6.2965    3.7918 Q=   -0.8200 A=    0.0000 R=    0.0000 C=    0.0000
 XYZ=   -8.9243    6.0244    4.6795 Q=    0.4100 A=    0.0000 R=    0.0000 C=    0.0000
 XYZ=   -8.7617    5.5925    3.1131 Q=    0.4100 A=    0.0000 R=    0.0000 C=    0.0000
 XYZ=   -2.0440    4.2994  -11.4161 Q=   -0.8200 A=    0.0000 R=    0.0000 C=    0.0000
 XYZ=   -2.4493    3.6413  -10.7815 Q=    0.4100 A=    0.0000 R=    0.0000 C=    0.0000
 XYZ=   -1.4109    3.8256  -12.0283 Q=    0.4100 A=    0.0000 R=    0.0000 C=    0.0000
 XYZ=   -0.4431   -6.3015  -10.9088 Q=   -0.8200 A=    0.0000 R=    0.0000 C=    0.0000
 XYZ=   -1.2999   -6.5775  -10.4733 Q=    0.4100 A=    0.0000 R=    0.0000 C=    0.0000
 XYZ=    0.0453   -5.6662  -10.3105 Q=    0.4100 A=    0.0000 R=    0.0000 C=    0.0000
 XYZ=    7.7486    7.5852    4.4607 Q=   -0.8200 A=    0.0000 R=    0.0000 C=    0.0000
 XYZ=    8.3981    6.9646    4.9001 Q=    0.4100 A=    0.0000 R=    0.0000 C=    0.0000
 XYZ=    7.1807    7.0721    3.8170 Q=    0.4100 A=    0.0000 R=    0.0000 C=    0.0000
 XYZ=    5.6135   -5.2571   -8.9617 Q=   -0.8200 A=    0.0000 R=    0.0000 C=    0.0000
 XYZ=    6.1402   -5.9736   -9.4192 Q=    0.4100 A=    0.0000 R=    0.0000 C=    0.0000
 XYZ=    5.7286   -4.3937   -9.4530 Q=    0.4100 A=    0.0000 R=    0.0000 C=    0.0000
 XYZ=   -0.5668  -12.1964   -5.4557 Q=   -0.8200 A=    0.0000 R=    0.0000 C=    0.0000
 XYZ=   -0.4268  -13.0570   -4.9659 Q=    0.4100 A=    0.0000 R=    0.0000 C=    0.0000
 XYZ=   -0.9337  -11.5109   -4.8269 Q=    0.4100 A=    0.0000 R=    0.0000 C=    0.0000
 XYZ=  -10.7325   -0.5046    2.1809 Q=   -0.8200 A=    0.0000 R=    0.0000 C=    0.0000
 XYZ=  -10.5699   -0.2506    1.2275 Q=    0.4100 A=    0.0000 R=    0.0000 C=    0.0000
 XYZ=   -9.8568   -0.6018    2.6539 Q=    0.4100 A=    0.0000 R=    0.0000 C=    0.0000
 XYZ=    6.8035    0.6237    9.2913 Q=   -0.8200 A=    0.0000 R=    0.0000 C=    0.0000
 XYZ=    6.2101    1.3314    8.9077 Q=    0.4100 A=    0.0000 R=    0.0000 C=    0.0000
 XYZ=    7.6066    1.0512    9.7063 Q=    0.4100 A=    0.0000 R=    0.0000 C=    0.0000
 XYZ=   -7.8535   -5.1802    6.6126 Q=   -0.8200 A=    0.0000 R=    0.0000 C=    0.0000
 XYZ=   -8.3143   -5.5764    5.8184 Q=    0.4100 A=    0.0000 R=    0.0000 C=    0.0000
 XYZ=   -7.4302   -4.3120    6.3536 Q=    0.4100 A=    0.0000 R=    0.0000 C=    0.0000
 XYZ=   -0.2041    2.6132  -12.1974 Q=   -0.8200 A=    0.0000 R=    0.0000 C=    0.0000
 XYZ=    0.2194    3.0908  -11.4276 Q=    0.4100 A=    0.0000 R=    0.0000 C=    0.0000
 XYZ=   -0.5353    1.7198  -11.8939 Q=    0.4100 A=    0.0000 R=    0.0000 C=    0.0000
 XYZ=   -9.1276    4.0728   -6.6653 Q=   -0.8200 A=    0.0000 R=    0.0000 C=    0.0000
 XYZ=   -9.4724    4.9015   -7.1061 Q=    0.4100 A=    0.0000 R=    0.0000 C=    0.0000
 XYZ=   -8.1306    4.1191   -6.6020 Q=    0.4100 A=    0.0000 R=    0.0000 C=    0.0000
 XYZ=   -0.2364   10.1527    7.1639 Q=   -0.8200 A=    0.0000 R=    0.0000 C=    0.0000
 XYZ=   -0.1066    9.3109    6.6399 Q=    0.4100 A=    0.0000 R=    0.0000 C=    0.0000
 XYZ=    0.5051   10.7912    6.9578 Q=    0.4100 A=    0.0000 R=    0.0000 C=    0.0000
 XYZ=   -5.3799   11.0401   -4.2572 Q=   -0.8200 A=    0.0000 R=    0.0000 C=    0.0000
 XYZ=   -5.0914   10.1768   -3.8430 Q=    0.4100 A=    0.0000 R=    0.0000 C=    0.0000
 XYZ=   -4.6667   11.3668   -4.8775 Q=    0.4100 A=    0.0000 R=    0.0000 C=    0.0000
 XYZ=   -3.8437   -8.3160   -7.9839 Q=   -0.8200 A=    0.0000 R=    0.0000 C=    0.0000
 XYZ=   -3.3566   -7.8170   -8.7007 Q=    0.4100 A=    0.0000 R=    0.0000 C=    0.0000
 XYZ=   -3.3817   -9.1858   -7.8105 Q=    0.4100 A=    0.0000 R=    0.0000 C=    0.0000
 XYZ=   -5.3618   -0.1312  -10.6254 Q=   -0.8200 A=    0.0000 R=    0.0000 C=    0.0000
 XYZ=   -5.9970    0.6316  -10.7470 Q=    0.4100 A=    0.0000 R=    0.0000 C=    0.0000
 XYZ=   -5.7404   -0.9516  -11.0539 Q=    0.4100 A=    0.0000 R=    0.0000 C=    0.0000
 XYZ=    6.0238   -3.0444   -9.8982 Q=   -0.8200 A=    0.0000 R=    0.0000 C=    0.0000
 XYZ=    6.4310   -2.9439  -10.8060 Q=    0.4100 A=    0.0000 R=    0.0000 C=    0.0000
 XYZ=    6.5871   -2.5648   -9.2252 Q=    0.4100 A=    0.0000 R=    0.0000 C=    0.0000
 XYZ=   -3.6359   -4.3761    9.6351 Q=   -0.8200 A=    0.0000 R=    0.0000 C=    0.0000
 XYZ=   -4.2206   -5.1866    9.6007 Q=    0.4100 A=    0.0000 R=    0.0000 C=    0.0000
 XYZ=   -3.4798   -4.1179   10.5885 Q=    0.4100 A=    0.0000 R=    0.0000 C=    0.0000
 XYZ=   -8.1433   -1.6910   -8.0422 Q=   -0.8200 A=    0.0000 R=    0.0000 C=    0.0000
 XYZ=   -9.0708   -1.3697   -8.2336 Q=    0.4100 A=    0.0000 R=    0.0000 C=    0.0000
 XYZ=   -7.8913   -2.3960   -8.7052 Q=    0.4100 A=    0.0000 R=    0.0000 C=    0.0000
 XYZ=   -5.8502    5.3101   -8.4641 Q=   -0.8200 A=    0.0000 R=    0.0000 C=    0.0000
 XYZ=   -6.1695    6.1896   -8.8172 Q=    0.4100 A=    0.0000 R=    0.0000 C=    0.0000
 XYZ=   -5.8049    4.6474   -9.2116 Q=    0.4100 A=    0.0000 R=    0.0000 C=    0.0000
 XYZ=   -5.3179   10.7348    0.2256 Q=   -0.8200 A=    0.0000 R=    0.0000 C=    0.0000
 XYZ=   -5.6426   11.6576    0.0179 Q=    0.4100 A=    0.0000 R=    0.0000 C=    0.0000
 XYZ=   -6.0617   10.2031    0.6307 Q=    0.4100 A=    0.0000 R=    0.0000 C=    0.0000
 XYZ=  -10.3464    2.5238   -3.1335 Q=   -0.8200 A=    0.0000 R=    0.0000 C=    0.0000
 XYZ=  -10.4624    2.5608   -2.1410 Q=    0.4100 A=    0.0000 R=    0.0000 C=    0.0000
 XYZ=  -11.1972    2.2127   -3.5572 Q=    0.4100 A=    0.0000 R=    0.0000 C=    0.0000
 XYZ=   -5.8742    5.5429    9.1237 Q=   -0.8200 A=    0.0000 R=    0.0000 C=    0.0000
 XYZ=   -6.4761    6.3399    9.1741 Q=    0.4100 A=    0.0000 R=    0.0000 C=    0.0000
 XYZ=   -5.0471    5.7815    8.6148 Q=    0.4100 A=    0.0000 R=    0.0000 C=    0.0000
 XYZ=    1.8799   -1.3004  -12.3919 Q=   -0.8200 A=    0.0000 R=    0.0000 C=    0.0000
 XYZ=    2.5188   -0.7779  -11.8273 Q=    0.4100 A=    0.0000 R=    0.0000 C=    0.0000
 XYZ=    2.1888   -1.2883  -13.3429 Q=    0.4100 A=    0.0000 R=    0.0000 C=    0.0000
 XYZ=   10.5064    2.8552   -1.7843 Q=   -0.8200 A=    0.0000 R=    0.0000 C=    0.0000
 XYZ=    9.6882    3.2585   -1.3744 Q=    0.4100 A=    0.0000 R=    0.0000 C=    0.0000
 XYZ=   10.9103    2.1998   -1.1460 Q=    0.4100 A=    0.0000 R=    0.0000 C=    0.0000
 XYZ=    1.1817    5.3062   10.5940 Q=   -0.8200 A=    0.0000 R=    0.0000 C=    0.0000
 XYZ=    0.3704    5.5051   11.1438 Q=    0.4100 A=    0.0000 R=    0.0000 C=    0.0000
 XYZ=    1.4193    4.3394   10.6882 Q=    0.4100 A=    0.0000 R=    0.0000 C=    0.0000
 XYZ=    4.1625    3.6173   10.0744 Q=   -0.8200 A=    0.0000 R=    0.0000 C=    0.0000
 XYZ=    4.8524    3.5248   10.7924 Q=    0.4100 A=    0.0000 R=    0.0000 C=    0.0000
 XYZ=    4.1006    4.5749    9.7930 Q=    0.4100 A=    0.0000 R=    0.0000 C=    0.0000
 XYZ=   -6.8619    3.5694    8.3860 Q=   -0.8200 A=    0.0000 R=    0.0000 C=    0.0000
 XYZ=   -7.1679    3.0266    9.1682 Q=    0.4100 A=    0.0000 R=    0.0000 C=    0.0000
 XYZ=   -6.4250    4.4075    8.7125 Q=    0.4100 A=    0.0000 R=    0.0000 C=    0.0000
 XYZ=    8.7333   -8.3116    4.0798 Q=   -0.8200 A=    0.0000 R=    0.0000 C=    0.0000
 XYZ=    8.2265   -7.4919    3.8129 Q=    0.4100 A=    0.0000 R=    0.0000 C=    0.0000
 XYZ=    8.1934   -8.8383    4.7365 Q=    0.4100 A=    0.0000 R=    0.0000 C=    0.0000
 XYZ=   -6.8934    1.6731  -10.3096 Q=   -0.8200 A=    0.0000 R=    0.0000 C=    0.0000
 XYZ=   -7.0417    1.1930   -9.4449 Q=    0.4100 A=    0.0000 R=    0.0000 C=    0.0000
 XYZ=   -7.7425    1.6783  -10.8377 Q=    0.4100 A=    0.0000 R=    0.0000 C=    0.0000
 XYZ=   -4.1981   11.3166    2.1696 Q=   -0.8200 A=    0.0000 R=    0.0000 C=    0.0000
 XYZ=   -4.8654   11.2300    2.9094 Q=    0.4100 A=    0.0000 R=    0.0000 C=    0.0000
 XYZ=   -4.6143   11.0227    1.3092 Q=    0.4100 A=    0.0000 R=    0.0000 C=    0.0000
 XYZ=  -11.0360    2.5887   -0.7228 Q=   -0.8200 A=    0.0000 R=    0.0000 C=    0.0000
 XYZ=  -12.0323    2.6636   -0.6788 Q=    0.4100 A=    0.0000 R=    0.0000 C=    0.0000
 XYZ=  -10.6224    3.4063   -0.3221 Q=    0.4100 A=    0.0000 R=    0.0000 C=    0.0000
 XYZ=   11.3393   -0.9772   -0.4211 Q=   -0.8200 A=    0.0000 R=    0.0000 C=    0.0000
 XYZ=   12.2834   -1.1115   -0.1197 Q=    0.4100 A=    0.0000 R=    0.0000 C=    0.0000
 XYZ=   10.7137   -1.2859    0.2953 Q=    0.4100 A=    0.0000 R=    0.0000 C=    0.0000
 XYZ=   -8.9570    5.6699    6.0980 Q=   -0.8200 A=    0.0000 R=    0.0000 C=    0.0000
 XYZ=   -8.3601    4.8789    5.9630 Q=    0.4100 A=    0.0000 R=    0.0000 C=    0.0000
 XYZ=   -8.4358    6.4129    6.5178 Q=    0.4100 A=    0.0000 R=    0.0000 C=    0.0000
 XYZ=   -8.6081    1.5170    8.0107 Q=   -0.8200 A=    0.0000 R=    0.0000 C=    0.0000
 XYZ=   -8.3029    0.7181    7.4924 Q=    0.4100 A=    0.0000 R=    0.0000 C=    0.0000
 XYZ=   -8.0829    2.3192    7.7265 Q=    0.4100 A=    0.0000 R=    0.0000 C=    0.0000
 XYZ=   -0.6274   -1.1218  -12.9291 Q=   -0.8200 A=    0.0000 R=    0.0000 C=    0.0000
 XYZ=   -0.9316   -0.3885  -12.3211 Q=    0.4100 A=    0.0000 R=    0.0000 C=    0.0000
 XYZ=    0.3573   -1.2576  -12.8207 Q=    0.4100 A=    0.0000 R=    0.0000 C=    0.0000
 XYZ=   -3.5221   11.4879   -5.7630 Q=   -0.8200 A=    0.0000 R=    0.0000 C=    0.0000
 XYZ=   -3.2416   10.5664   -5.4941 Q=    0.4100 A=    0.0000 R=    0.0000 C=    0.0000
 XYZ=   -2.7163   12.0768   -5.8250 Q=    0.4100 A=    0.0000 R=    0.0000 C=    0.0000
 XYZ=   -9.9017    4.4802   -4.3817 Q=   -0.8200 A=    0.0000 R=    0.0000 C=    0.0000
 XYZ=   -9.5169    4.3637   -5.2973 Q=    0.4100 A=    0.0000 R=    0.0000 C=    0.0000
 XYZ=  -10.1140    3.5836   -3.9928 Q=    0.4100 A=    0.0000 R=    0.0000 C=    0.0000
 XYZ=   -3.7817  -12.6193    0.7372 Q=   -0.8200 A=    0.0000 R=    0.0000 C=    0.0000
 XYZ=   -3.8898  -11.8395    0.1206 Q=    0.4100 A=    0.0000 R=    0.0000 C=    0.0000
 XYZ=   -2.9021  -13.0623    0.5633 Q=    0.4100 A=    0.0000 R=    0.0000 C=    0.0000
 XYZ=   -2.2463  -10.2022   -7.3722 Q=   -0.8200 A=    0.0000 R=    0.0000 C=    0.0000
 XYZ=   -1.6044  -10.4902   -8.0830 Q=    0.4100 A=    0.0000 R=    0.0000 C=    0.0000
 XYZ=   -2.6971  -11.0064   -6.9847 Q=    0.4100 A=    0.0000 R=    0.0000 C=    0.0000
 XYZ=   -7.3632   -3.3935   -9.6459 Q=   -0.8200 A=    0.0000 R=    0.0000 C=    0.0000
 XYZ=   -6.5128   -3.8498   -9.3841 Q=    0.4100 A=    0.0000 R=    0.0000 C=    0.0000
 XYZ=   -7.9520   -4.0394  -10.1319 Q=    0.4100 A=    0.0000 R=    0.0000 C=    0.0000
 XYZ=   -2.8556  -12.0944    2.9308 Q=   -0.8200 A=    0.0000 R=    0.0000 C=    0.0000
 XYZ=   -3.1215  -11.2354    3.3684 Q=    0.4100 A=    0.0000 R=    0.0000 C=    0.0000
 XYZ=   -3.3260  -12.1806    2.0526 Q=    0.4100 A=    0.0000 R=    0.0000 C=    0.0000
 XYZ=   -5.1994  -10.3623    4.8183 Q=   -0.8200 A=    0.0000 R=    0.0000 C=    0.0000
 XYZ=   -5.4503  -11.2934    4.5533 Q=    0.4100 A=    0.0000 R=    0.0000 C=    0.0000
 XYZ=   -4.2611  -10.1746    4.5277 Q=    0.4100 A=    0.0000 R=    0.0000 C=    0.0000
[...]
    39  O    0.000000   0.000000   0.000000   0.000000   0.000000   0.000000
    40  H    0.000000   0.000000   0.000000   0.000000   0.000000   0.000000
    41  H    0.000000   0.000000   0.000000   0.000000   0.000000   0.000000
    42  O    0.000000   0.000000  -0.000039  -0.000018   0.000000   0.000001
    43  H    0.000000   0.000000   0.000001   0.000000   0.000000   0.000007
    44  H    0.000000   0.000000  -0.000013   0.000008   0.000000   0.000125
    45  O    0.000000   0.000000   0.000000   0.000000   0.000000   0.000000
    46  H    0.000000   0.000000   0.000000   0.000000   0.000000   0.000000
    47  H    0.000000   0.000000   0.000000   0.000000   0.000000   0.000000
    48  O    0.000000   0.000000  -0.068029   0.001817   0.002128  -0.000095
    49  H    0.000000   0.000000   0.038786  -0.000256  -0.002549   0.000046
    50  H    0.000000   0.000000  -0.001862   0.000032   0.000092   0.000002
              31         32         33         34         35         36
     1  C    0.000011  -0.000011  -0.003106   0.000040   0.002389  -0.000176
     2  H    0.000000   0.000000  -0.000045  -0.000003  -0.000007   0.000000
     3  H    0.000000   0.000000   0.000001   0.000000  -0.000002  -0.000002
     4  C    0.000058   0.000210   0.001421   0.000291  -0.002293   0.003372
     5  H    0.000000   0.000000  -0.000001   0.000000   0.000000  -0.000015
     6  C    0.000274  -0.000534   0.003461  -0.000237   0.000626  -0.002870
     7  H    0.000000  -0.000040  -0.000001   0.000000  -0.000001   0.000000
     8  O   -0.000087   0.002568  -0.001852   0.000038  -0.000179   0.000021
     9  O    0.000104   0.000027  -0.068767  -0.000066   0.037536  -0.000006
    10  H    0.000001   0.000000   0.006381  -0.000187  -0.000898   0.000006
    11  H    0.000008  -0.000007   0.005307  -0.000072  -0.000247  -0.000009
    12  O   -0.000115  -0.002305   0.000030   0.000000  -0.000031   0.000001
    13  H   -0.000020  -0.000011   0.000003   0.000000  -0.000001   0.000000
    14  H   -0.000031   0.000155   0.000000   0.000000   0.000000   0.000000
    15  O    0.004200   0.054531  -0.000006   0.000000  -0.000009   0.000000
    16  H   -0.000120   0.001579  -0.000001   0.000000   0.000000   0.000000
    17  H   -0.000013  -0.001008   0.000000   0.000000   0.000000   0.000000
    18  O   -0.000001   0.000008   0.000000   0.000000   0.000000   0.000000
    19  H    0.000000  -0.000001   0.000000   0.000000   0.000000   0.000000
    20  H    0.000000   0.000000   0.000000   0.000000   0.000000   0.000000
    21  O    0.000000   0.000000  -0.003441  -0.000199   0.001960  -0.000574
    22  H    0.000000   0.000000   0.000108  -0.000020   0.000022   0.000021
    23  H    0.000000   0.000000   0.000031   0.000001  -0.000001  -0.000400
    24  O    0.000000   0.000000  -0.000010  -0.000002   0.000045  -0.060727
    25  H    0.000000   0.000000   0.000000   0.000000   0.000000   0.000823
    26  H    0.000000   0.000000  -0.000001   0.000000   0.000000   0.018016
    27  O    0.000072  -0.000271   0.000005   0.000000   0.000001   0.000000
    28  H   -0.000062   0.002192   0.000000   0.000000   0.000000   0.000000
    29  H    0.000000   0.000045   0.000000   0.000000   0.000000   0.000000
    30  O    0.196836   0.141304  -0.000099   0.000001   0.000003   0.000000
    31  H    0.164806  -0.001859   0.000011   0.000000  -0.000002   0.000000
    32  H   -0.001859   0.219058   0.000006   0.000000   0.000000   0.000000
    33  O    0.000011   0.000006   8.929587   0.227438   0.157280   0.000000
    34  H    0.000000   0.000000   0.227438   0.178333  -0.005892   0.000000
    35  H   -0.000002   0.000000   0.157280  -0.005892   0.179176   0.000000
    36  O    0.000000   0.000000   0.000000   0.000000   0.000000   8.792880
    37  H    0.000000   0.000000   0.000000   0.000000   0.000000   0.222538
    38  H    0.000000   0.000000   0.000000   0.000000   0.000000   0.208355
    39  O    0.000000   0.000000   0.000000   0.000000   0.000000   0.000000
    40  H    0.000000   0.000000   0.000000   0.000000   0.000000   0.000000
    41  H    0.000000   0.000000   0.000000   0.000000   0.000000   0.000000
    42  O   -0.000001  -0.000006   0.000000   0.000000   0.000000   0.000000
    43  H    0.000000  -0.000002   0.000000   0.000000   0.000000   0.000000
    44  H    0.000002   0.000171   0.000000   0.000000   0.000000   0.000000
    45  O    0.000000   0.000000  -0.000063  -0.000007   0.000001   0.000000
    46  H    0.000000   0.000000   0.000000   0.000000   0.000000   0.000000
    47  H    0.000000   0.000000   0.000006   0.000000   0.000000   0.000000
    48  O    0.000006   0.000031   0.000004   0.000000   0.000000   0.000000
    49  H   -0.000005  -0.000048   0.000000   0.000000   0.000000   0.000000
    50  H    0.000000   0.000000   0.000000   0.000000   0.000000   0.000000
              37         38         39         40         41         42
     1  C   -0.000023   0.000044   0.002057  -0.000354   0.002112   0.000036
     2  H    0.000000   0.000000  -0.000019   0.000000   0.000001   0.000000
     3  H    0.000000   0.000000  -0.000113   0.000001  -0.000010   0.000000
     4  C    0.000637  -0.000338   0.000454   0.000081  -0.001394  -0.006600
     5  H   -0.000004   0.000000  -0.000001   0.000000   0.000000   0.000000
     6  C   -0.000401   0.000217  -0.000317   0.000009  -0.000009  -0.002610
     7  H    0.000000   0.000000   0.000000   0.000000   0.000000   0.001825
     8  O   -0.000001   0.000000   0.000002   0.000000   0.000000  -0.000485
     9  O    0.000000   0.000000   0.000000   0.000000   0.000000   0.000003
    10  H    0.000000   0.000000   0.000000   0.000000   0.000000   0.000000
    11  H    0.000000   0.000000   0.000000   0.000000   0.000000   0.000008
    12  O    0.000000   0.000000   0.000000   0.000000   0.000000  -0.035570
    13  H    0.000000   0.000000   0.000000   0.000000   0.000000   0.001977
    14  H    0.000000   0.000000   0.000000   0.000000   0.000000  -0.000932
    15  O    0.000000   0.000000   0.000000   0.000000   0.000000  -0.006580
    16  H    0.000000   0.000000   0.000000   0.000000   0.000000  -0.002080
    17  H    0.000000   0.000000   0.000000   0.000000   0.000000   0.000198
    18  O    0.000000   0.000000   0.000000   0.000000   0.000000   0.000000
    19  H    0.000000   0.000000   0.000000   0.000000   0.000000   0.000000
    20  H    0.000000   0.000000   0.000000   0.000000   0.000000   0.000000
    21  O    0.000030  -0.000020   0.000000   0.000000   0.000000   0.000000
    22  H    0.000000   0.000000   0.000000   0.000000   0.000000   0.000000
    23  H    0.000009  -0.000009   0.000000   0.000000   0.000000   0.000000
    24  O    0.001970  -0.000303   0.000000   0.000000   0.000000   0.000000
    25  H    0.000001  -0.000011   0.000000   0.000000   0.000000   0.000000
    26  H    0.000373  -0.000700   0.000000   0.000000   0.000000   0.000000
    27  O    0.000000   0.000000   0.000000   0.000000   0.000000  -0.000039
    28  H    0.000000   0.000000   0.000000   0.000000   0.000000  -0.000018
    29  H    0.000000   0.000000   0.000000   0.000000   0.000000   0.000000
    30  O    0.000000   0.000000   0.000000   0.000000   0.000000   0.000001
    31  H    0.000000   0.000000   0.000000   0.000000   0.000000  -0.000001
    32  H    0.000000   0.000000   0.000000   0.000000   0.000000  -0.000006
    33  O    0.000000   0.000000   0.000000   0.000000   0.000000   0.000000
    34  H    0.000000   0.000000   0.000000   0.000000   0.000000   0.000000
    35  H    0.000000   0.000000   0.000000   0.000000   0.000000   0.000000
    36  O    0.222538   0.208355   0.000000   0.000000   0.000000   0.000000
    37  H    0.206151  -0.006244   0.000000   0.000000   0.000000   0.000000
    38  H   -0.006244   0.167502   0.000000   0.000000   0.000000   0.000000
    39  O    0.000000   0.000000   8.660373   0.230429   0.222762   0.000000
    40  H    0.000000   0.000000   0.230429   0.185893  -0.012936   0.000000
    41  H    0.000000   0.000000   0.222762  -0.012936   0.299731   0.000000
    42  O    0.000000   0.000000   0.000000   0.000000   0.000000   8.913923
    43  H    0.000000   0.000000   0.000000   0.000000   0.000000   0.210417
    44  H    0.000000   0.000000   0.000000   0.000000   0.000000   0.134722
    45  O    0.000000   0.000000  -0.049790   0.000457   0.000462   0.000000
    46  H    0.000000   0.000000   0.011721  -0.000546  -0.000736   0.000000
    47  H    0.000000   0.000000   0.000856  -0.000034  -0.000017   0.000000
    48  O    0.000000   0.000000   0.000000   0.000000   0.000000   0.000000
    49  H    0.000000   0.000000   0.000000   0.000000   0.000000   0.000000
    50  H    0.000000   0.000000   0.000000   0.000000   0.000000   0.000000
              43         44         45         46         47         48
     1  C   -0.000003  -0.000014  -0.015091   0.000762  -0.000918  -0.000167
     2  H    0.000000   0.000000  -0.000234   0.000006  -0.000002   0.000000
     3  H    0.000000   0.000000  -0.000226   0.000005   0.000004   0.000000
     4  C   -0.000029   0.004249   0.016705  -0.001716   0.000874   0.000419
     5  H    0.000000  -0.000001  -0.000002   0.000000   0.000000   0.000000
     6  C    0.000162   0.000305  -0.000510  -0.000019   0.000102  -0.000546
     7  H    0.000004  -0.000351   0.000000   0.000000   0.000000   0.000000
     8  O   -0.000023   0.002040   0.000072   0.000000   0.000001   0.000144
     9  O    0.000000  -0.000006   0.000015   0.000000  -0.000001   0.000004
    10  H    0.000000   0.000000   0.000000   0.000000   0.000000   0.000000
    11  H    0.000000   0.000000   0.000001   0.000000   0.000000   0.000000
    12  O    0.000687   0.021029   0.000000   0.000000   0.000000   0.000010
    13  H    0.000025   0.000859   0.000000   0.000000   0.000000   0.000000
    14  H   -0.000163   0.000916   0.000000   0.000000   0.000000   0.000000
    15  O    0.000200  -0.004254   0.000000   0.000000   0.000000  -0.000849
    16  H   -0.000116   0.002427   0.000000   0.000000   0.000000   0.000031
    17  H   -0.000019   0.000049   0.000000   0.000000   0.000000  -0.000005
    18  O    0.000000   0.000000   0.000001   0.000000   0.000000   0.001308
    19  H    0.000000   0.000000   0.000000   0.000000   0.000000  -0.000699
    20  H    0.000000   0.000000   0.000000   0.000000   0.000000   0.002786
    21  O    0.000000   0.000000   0.000000   0.000000   0.000000   0.000000
    22  H    0.000000   0.000000   0.000000   0.000000   0.000000   0.000000
    23  H    0.000000   0.000000   0.000000   0.000000   0.000000   0.000000
    24  O    0.000000   0.000000   0.000000   0.000000   0.000000   0.000000
    25  H    0.000000   0.000000   0.000000   0.000000   0.000000   0.000000
    26  H    0.000000   0.000000   0.000000   0.000000   0.000000   0.000000
    27  O    0.000001  -0.000013   0.000000   0.000000   0.000000  -0.068029
    28  H    0.000000   0.000008   0.000000   0.000000   0.000000   0.001817
    29  H    0.000000   0.000000   0.000000   0.000000   0.000000   0.002128
    30  O    0.000007   0.000125   0.000000   0.000000   0.000000  -0.000095
    31  H    0.000000   0.000002   0.000000   0.000000   0.000000   0.000006
    32  H   -0.000002   0.000171   0.000000   0.000000   0.000000   0.000031
    33  O    0.000000   0.000000  -0.000063   0.000000   0.000006   0.000004
    34  H    0.000000   0.000000  -0.000007   0.000000   0.000000   0.000000
    35  H    0.000000   0.000000   0.000001   0.000000   0.000000   0.000000
    36  O    0.000000   0.000000   0.000000   0.000000   0.000000   0.000000
    37  H    0.000000   0.000000   0.000000   0.000000   0.000000   0.000000
    38  H    0.000000   0.000000   0.000000   0.000000   0.000000   0.000000
    39  O    0.000000   0.000000  -0.049790   0.011721   0.000856   0.000000
    40  H    0.000000   0.000000   0.000457  -0.000546  -0.000034   0.000000
    41  H    0.000000   0.000000   0.000462  -0.000736  -0.000017   0.000000
    42  O    0.210417   0.134722   0.000000   0.000000   0.000000   0.000000
    43  H    0.171980  -0.004967   0.000000   0.000000   0.000000   0.000000
    44  H   -0.004967   0.268680   0.000000   0.000000   0.000000   0.000000
    45  O    0.000000   0.000000   8.775341   0.193204   0.229201  -0.000002
    46  H    0.000000   0.000000   0.193204   0.252595  -0.009944   0.000000
    47  H    0.000000   0.000000   0.229201  -0.009944   0.187715   0.000000
    48  O    0.000000   0.000000  -0.000002   0.000000   0.000000   8.968996
    49  H    0.000000   0.000000   0.000000   0.000000   0.000000   0.135768
    50  H    0.000000   0.000000   0.000001   0.000000   0.000000   0.203824
              49         50
     1  C   -0.000002  -0.000004
     2  H    0.000000   0.000000
     3  H    0.000000   0.000000
     4  C    0.000002   0.000020
     5  H    0.000000   0.000000
     6  C    0.000004  -0.000037
     7  H    0.000000   0.000000
     8  O   -0.000039  -0.000001
     9  O   -0.000001   0.000000
    10  H    0.000000   0.000000
    11  H    0.000000   0.000000
    12  O   -0.000001   0.000000
    13  H    0.000000   0.000000
    14  H    0.000000   0.000000
    15  O   -0.000989  -0.000016
    16  H   -0.000006   0.000000
    17  H    0.000027   0.000000
    18  O    0.001771   0.005454
    19  H   -0.000197  -0.000235
    20  H   -0.000524  -0.000014
    21  O    0.000000   0.000000
    22  H    0.000000   0.000000
    23  H    0.000000   0.000000
    24  O    0.000000   0.000000
    25  H    0.000000   0.000000
    26  H    0.000000   0.000000
    27  O    0.038786  -0.001862
    28  H   -0.000256   0.000032
    29  H   -0.002549   0.000092
    30  O    0.000046   0.000002
    31  H   -0.000005   0.000000
    32  H   -0.000048   0.000000
    33  O    0.000000   0.000000
    34  H    0.000000   0.000000
    35  H    0.000000   0.000000
    36  O    0.000000   0.000000
    37  H    0.000000   0.000000
    38  H    0.000000   0.000000
    39  O    0.000000   0.000000
    40  H    0.000000   0.000000
    41  H    0.000000   0.000000
    42  O    0.000000   0.000000
    43  H    0.000000   0.000000
    44  H    0.000000   0.000000
    45  O    0.000000   0.000001
    46  H    0.000000   0.000000
    47  H    0.000000   0.000000
    48  O    0.135768   0.203824
    49  H    0.209980  -0.000844
    50  H   -0.000844   0.198728
 Mulliken charges:
               1
     1  C   -0.291782
     2  H    0.278781
     3  H    0.234485
     4  C   -0.283068
     5  H    0.223460
     6  C    0.000297
     7  H    0.172713
     8  O   -0.321834
     9  O   -1.090855
    10  H    0.592627
    11  H    0.520241
    12  O   -1.186561
    13  H    0.478588
    14  H    0.663280
    15  O   -1.247564
    16  H    0.646194
    17  H    0.656900
    18  O   -1.091797
    19  H    0.499793
    20  H    0.603317
    21  O   -1.249621
    22  H    0.601693
    23  H    0.622680
    24  O   -1.164853
    25  H    0.588302
    26  H    0.601261
    27  O   -1.192968
    28  H    0.612569
    29  H    0.597720
    30  O   -1.257368
    31  H    0.635928
    32  H    0.584216
    33  O   -1.253687
    34  H    0.600545
    35  H    0.630522
    36  O   -1.181255
    37  H    0.574965
    38  H    0.631507
    39  O   -1.078414
    40  H    0.596998
    41  H    0.490034
    42  O   -1.208188
    43  H    0.621839
    44  H    0.574023
    45  O   -1.149539
    46  H    0.554666
    47  H    0.592157
    48  O   -1.246884
    49  H    0.619075
    50  H    0.594862
 Sum of Mulliken charges =   0.00000
 Mulliken charges with hydrogens summed into heavy atoms:
               1
     1  C    0.221485
     4  C   -0.059608
     6  C    0.173010
     8  O   -0.321834
     9  O    0.022013
    12  O   -0.044693
    15  O    0.055530
    18  O    0.011313
    21  O   -0.025247
    24  O    0.024710
    27  O    0.017321
    30  O   -0.037224
    33  O   -0.022620
    36  O    0.025216
    39  O    0.008618
    42  O   -0.012326
    45  O   -0.002716
    48  O   -0.032948
 Electronic spatial extent (au):  <R**2>=          12918.6307
 Charge=              0.0000 electrons
 Dipole moment (field-independent basis, Debye):
    X=            -19.1255    Y=             -2.6016    Z=            -12.7502  Tot=             23.1327
 Quadrupole moment (field-independent basis, Debye-Ang):
   XX=            -62.1004   YY=           -109.4632   ZZ=           -163.2208
   XY=            -35.1615   XZ=             14.0512   YZ=              1.6616
 Traceless Quadrupole moment (field-independent basis, Debye-Ang):
   XX=             49.4944   YY=              2.1316   ZZ=            -51.6260
   XY=            -35.1615   XZ=             14.0512   YZ=              1.6616
 Octapole moment (field-independent basis, Debye-Ang**2):
  XXX=           -405.2609  YYY=            -36.3103  ZZZ=           -162.0527  XYY=           -224.3375
  XXY=            -73.8666  XXZ=            -89.0254  XZZ=           -128.6471  YZZ=             25.9823
  YYZ=            -27.6105  XYZ=            -27.9393
 Hexadecapole moment (field-independent basis, Debye-Ang**3):
 XXXX=          -5556.1989 YYYY=          -5860.2303 ZZZZ=          -2951.7477 XXXY=           -318.3315
 XXXZ=             43.6642 YYYX=           -708.0933 YYYZ=             62.6112 ZZZX=            387.3184
 ZZZY=           -208.7332 XXYY=           -825.7934 XXZZ=          -1674.0800 YYZZ=          -1429.6448
 XXYZ=            264.8957 YYXZ=             51.2209 ZZXY=           -159.4900
 N-N= 1.051727731133D+03 E-N=-6.070593976547D+03  KE= 1.248781734180D+03
 Leave Link  601 at Fri Sep 14 17:57:18 2018, MaxMem=    33554432 cpu:         6.0
 (Enter /usr/local/pacerepov1/gaussian/G09D01LINDA/g09/l9999.exe)

 Test job not archived.
 1\1\GINC-RICH133-C38-33-R\SP\RLC-wPBE TD-FC\6-31+G(d)\C3H32O15\ROOT\14
 -Sep-2018\0\\#p td=(nstates=15)/6-31+g(d) lc-wpbe charge\\Acroleina in
  Water\\0,1\C,0,0.485154,0.480443,-1.430142\H,0,1.461403,0.187773,-1.0
 55732\H,0,0.429244,0.878853,-2.437062\C,0,-0.605127,0.346563,-0.658432
 \H,0,-1.591686,0.632893,-1.012412\C,0,-0.508516,-0.199107,0.712798\H,0
 ,-1.458487,-0.272107,1.272438\O,0,0.544883,-0.561317,1.236519\O,0,2.28
 483,1.846699,1.589664\H,0,2.17068,2.824759,1.415124\H,0,1.390319,1.399
 769,1.579604\O,0,-0.807731,-0.729871,3.383404\H,0,-0.731611,-0.090851,
 2.617984\H,0,-0.551461,-0.266071,4.231503\O,0,0.545409,-2.676761,3.448
 724\H,0,-0.028351,-1.877241,3.270894\H,0,-0.021011,-3.421651,3.801314\
 O,0,1.331879,-5.680991,0.260714\H,0,1.26504,-4.71727,0.519164\H,0,2.23
 144,-5.857211,-0.139036\O,0,1.90954,4.13563,0.672924\H,0,2.38487,4.522
 019,-0.117496\H,0,0.928259,4.30945,0.589434\O,0,-0.195781,4.983439,0.2
 58744\H,0,0.145049,5.7326,-0.309266\H,0,-1.18422,4.89481,0.135494\O,0,
 2.21948,-4.36925,2.584674\H,0,1.65997,-3.691131,3.061314\H,0,2.59873,-
 5.014181,3.248204\O,0,1.81582,-1.252291,4.856283\H,0,2.67523,-0.837451
 ,4.557323\H,0,1.40172,-1.748001,4.092854\O,0,4.61314,1.741389,0.966774
 \H,0,4.676929,1.776909,-0.030576\H,0,3.651979,1.776209,1.240684\O,0,-2
 .70394,4.979519,0.002444\H,0,-3.36799,4.299779,-0.309086\H,0,-2.9877,5
 .339749,0.891134\O,0,2.06372,-0.418121,-6.000407\H,0,2.13913,0.506499,
 -6.373816\H,0,1.12987,-0.571981,-5.677536\O,0,-2.96536,-1.198061,4.363
 234\H,0,-2.985341,-1.799821,5.161694\H,0,-2.01787,-0.961951,4.147463\O
 ,0,3.399669,-1.133881,-3.865206\H,0,3.068969,-0.898511,-4.779167\H,0,3
 .901089,-0.358051,-3.482196\O,0,4.143539,-4.5722,1.179274\H,0,3.33452,
 -4.390521,1.738324\H,0,3.86201,-4.96171,0.302304\\Version=EM64L-G09Rev
 D.01\State=1-A\HF=-1759.244884\RMSD=2.985e-09\PG=C01 [X(C3H32O15)]\\@


 YOU CANNOT THROW TO THE GROUND THE LETTERS OF
 THE GREEK ALPHABET AND PICK UP THE ILIAD.
        - RUFUS CHOATE, 1799-1859
 Job cpu time:       0 days  3 hours 45 minutes 58.1 seconds.
 File lengths (MBytes):  RWF=    792 Int=      0 D2E=      0 Chk=     96 Scr=      2
 Normal termination of Gaussian 09 at Fri Sep 14 17:57:24 2018.
