 Entering Gaussian System, Link 0=g09
 Input=Acroleina_water_15_30c.gjf
 Output=Acroleina_water_15_30c.log
 Initial command:
 /usr/local/pacerepov1/gaussian/G09D01LINDA/g09/l1.exe /nv/hp18/holiveira7/scratch/22411867/Gau-28312.inp -scrdir=/nv/hp18/holiveira7/scratch/22411867/
 Entering Link 1 = /usr/local/pacerepov1/gaussian/G09D01LINDA/g09/l1.exe PID=     28313.
  
 Copyright (c) 1988,1990,1992,1993,1995,1998,2003,2009,2013,
            Gaussian, Inc.  All Rights Reserved.
  
 This is part of the Gaussian(R) 09 program.  It is based on
 the Gaussian(R) 03 system (copyright 2003, Gaussian, Inc.),
 the Gaussian(R) 98 system (copyright 1998, Gaussian, Inc.),
 the Gaussian(R) 94 system (copyright 1995, Gaussian, Inc.),
 the Gaussian 92(TM) system (copyright 1992, Gaussian, Inc.),
 the Gaussian 90(TM) system (copyright 1990, Gaussian, Inc.),
 the Gaussian 88(TM) system (copyright 1988, Gaussian, Inc.),
 the Gaussian 86(TM) system (copyright 1986, Carnegie Mellon
 University), and the Gaussian 82(TM) system (copyright 1983,
 Carnegie Mellon University). Gaussian is a federally registered
 trademark of Gaussian, Inc.
  
 This software contains proprietary and confidential information,
 including trade secrets, belonging to Gaussian, Inc.
  
 This software is provided under written license and may be
 used, copied, transmitted, or stored only in accord with that
 written license.
  
 The following legend is applicable only to US Government
 contracts under FAR:
  
                    RESTRICTED RIGHTS LEGEND
  
 Use, reproduction and disclosure by the US Government is
 subject to restrictions as set forth in subparagraphs (a)
 and (c) of the Commercial Computer Software - Restricted
 Rights clause in FAR 52.227-19.
  
 Gaussian, Inc.
 340 Quinnipiac St., Bldg. 40, Wallingford CT 06492
  
  
 ---------------------------------------------------------------
 Warning -- This program may not be used in any manner that
 competes with the business of Gaussian, Inc. or will provide
 assistance to any competitor of Gaussian, Inc.  The licensee
 of this program is prohibited from giving any competitor of
 Gaussian, Inc. access to this program.  By using this program,
 the user acknowledges that Gaussian, Inc. is engaged in the
 business of creating and licensing software in the field of
 computational chemistry and represents and warrants to the
 licensee that it is not a competitor of Gaussian, Inc. and that
 it will not use this program in any manner prohibited above.
 ---------------------------------------------------------------
  

 Cite this work as:
 Gaussian 09, Revision D.01,
 M. J. Frisch, G. W. Trucks, H. B. Schlegel, G. E. Scuseria, 
 M. A. Robb, J. R. Cheeseman, G. Scalmani, V. Barone, B. Mennucci, 
 G. A. Petersson, H. Nakatsuji, M. Caricato, X. Li, H. P. Hratchian, 
 A. F. Izmaylov, J. Bloino, G. Zheng, J. L. Sonnenberg, M. Hada, 
 M. Ehara, K. Toyota, R. Fukuda, J. Hasegawa, M. Ishida, T. Nakajima, 
 Y. Honda, O. Kitao, H. Nakai, T. Vreven, J. A. Montgomery, Jr., 
 J. E. Peralta, F. Ogliaro, M. Bearpark, J. J. Heyd, E. Brothers, 
 K. N. Kudin, V. N. Staroverov, T. Keith, R. Kobayashi, J. Normand, 
 K. Raghavachari, A. Rendell, J. C. Burant, S. S. Iyengar, J. Tomasi, 
 M. Cossi, N. Rega, J. M. Millam, M. Klene, J. E. Knox, J. B. Cross, 
 V. Bakken, C. Adamo, J. Jaramillo, R. Gomperts, R. E. Stratmann, 
 O. Yazyev, A. J. Austin, R. Cammi, C. Pomelli, J. W. Ochterski, 
 R. L. Martin, K. Morokuma, V. G. Zakrzewski, G. A. Voth, 
 P. Salvador, J. J. Dannenberg, S. Dapprich, A. D. Daniels, 
 O. Farkas, J. B. Foresman, J. V. Ortiz, J. Cioslowski, 
 and D. J. Fox, Gaussian, Inc., Wallingford CT, 2013.
 
 ******************************************
 Gaussian 09:  EM64L-G09RevD.01 24-Apr-2013
                14-Sep-2018 
 ******************************************
 %chk=Acrolina_Din_30.chk
 %nprocshared=10
 Will use up to   10 processors via shared memory.
 -------------------------------------------
 #p td=(nstates=15)/6-31+g(d) lc-wpbe charge
 -------------------------------------------
 1/18=10,28=-2,38=1,125=101/1;
 2/12=2,17=6,18=5,40=1/2;
 3/5=1,6=6,7=11,11=9,16=1,25=1,30=1,74=-41/1,2,8,3;
 4//1;
 5/5=2,38=5/2;
 8/6=1,10=2,108=15/1;
 9/41=15,42=1,70=2/14;
 6/7=2,8=2,9=2,10=2/1;
 99/5=1,9=1/99;
 Leave Link    1 at Fri Sep 14 17:00:58 2018, MaxMem=           0 cpu:        18.6
 (Enter /usr/local/pacerepov1/gaussian/G09D01LINDA/g09/l101.exe)
 ------------------
 Acroleina in Water
 ------------------
 Symbolic Z-matrix:
 Charge =  0 Multiplicity = 1
 C                     0.48515   0.48044  -1.43014 
 H                     1.4614    0.18777  -1.05573 
 H                     0.42924   0.87885  -2.43706 
 C                    -0.60513   0.34656  -0.65843 
 H                    -1.59169   0.63289  -1.01241 
 C                    -0.50852  -0.19911   0.7128 
 H                    -1.45849  -0.27211   1.27244 
 O                     0.54488  -0.56132   1.23652 
 O                    -1.25535  -1.53421   3.22427 
 H                    -0.8088   -0.87073   2.62392 
 H                    -0.79514  -1.54294   4.11206 
 O                     2.26558   1.37698   1.2222 
 H                     2.03486   2.24233   0.7772 
 H                     1.48404   0.7555    1.16778 
 O                    -0.41588   3.84878  -0.63075 
 H                     0.15779   4.64423  -0.82617 
 H                    -1.28014   3.93117  -1.12705 
 O                     3.00641  -2.1011   -4.57115 
 H                     2.43972  -1.57412  -5.20459 
 H                     3.57277  -1.47716  -4.03265 
 O                     0.33969  -3.72249   3.05447 
 H                    -0.25987  -2.99859   2.71311 
 H                    -0.21185  -4.43563   3.48717 
 O                     1.75482   3.5747    0.36775 
 H                     2.32975   4.0214   -0.31776 
 H                     0.79767   3.62172   0.08182 
 O                     4.46885   0.93758   0.40633 
 H                     4.41411   1.13755  -0.57196 
 H                     3.59284   1.1499    0.83942 
 O                     4.60176  -0.91949  -3.36687 
 H                     5.33328  -0.81323  -4.04037 
 H                     4.88736  -1.57177  -2.66473 
 O                     4.7492    1.36778  -1.94006 
 H                     4.5149    2.23631  -2.37693 
 H                     4.49225   0.6118   -2.5422 
 O                    -3.25427   4.02926  -0.94248 
 H                    -3.97936   3.42712  -1.27675 
 H                    -3.38336   4.19548   0.03515 
 O                    -3.41783   4.61688   1.4965 
 H                    -4.33931   4.31583   1.74217 
 H                    -2.74654   4.11243   2.03959 
 O                    -3.39537  -2.19428   3.88126 
 H                    -3.32563  -2.57445   4.80358 
 H                    -2.48513  -1.93603   3.55752 
 O                     4.29608  -4.07068  -4.18186 
 H                     4.9899   -3.66867  -3.5843 
 H                     3.56327  -3.40764  -4.33485 
 O                     5.92046  -1.00853   0.84033 
 H                     5.20681  -0.30959   0.79289 
 H                     5.64107  -1.72743   1.47688 
 
 NAtoms=     50 NQM=       50 NQMF=       0 NMMI=      0 NMMIF=      0
                NMic=       0 NMicF=      0.
                    Isotopes and Nuclear Properties:
 (Nuclear quadrupole moments (NQMom) in fm**2, nuclear magnetic moments (NMagM)
  in nuclear magnetons)

  Atom         1           2           3           4           5           6           7           8           9          10
 IAtWgt=          12           1           1          12           1          12           1          16          16           1
 AtmWgt=  12.0000000   1.0078250   1.0078250  12.0000000   1.0078250  12.0000000   1.0078250  15.9949146  15.9949146   1.0078250
 NucSpn=           0           1           1           0           1           0           1           0           0           1
 AtZEff=   0.0000000   0.0000000   0.0000000   0.0000000   0.0000000   0.0000000   0.0000000   0.0000000   0.0000000   0.0000000
 NQMom=    0.0000000   0.0000000   0.0000000   0.0000000   0.0000000   0.0000000   0.0000000   0.0000000   0.0000000   0.0000000
 NMagM=    0.0000000   2.7928460   2.7928460   0.0000000   2.7928460   0.0000000   2.7928460   0.0000000   0.0000000   2.7928460
 AtZNuc=   6.0000000   1.0000000   1.0000000   6.0000000   1.0000000   6.0000000   1.0000000   8.0000000   8.0000000   1.0000000

  Atom        11          12          13          14          15          16          17          18          19          20
 IAtWgt=           1          16           1           1          16           1           1          16           1           1
 AtmWgt=   1.0078250  15.9949146   1.0078250   1.0078250  15.9949146   1.0078250   1.0078250  15.9949146   1.0078250   1.0078250
 NucSpn=           1           0           1           1           0           1           1           0           1           1
 AtZEff=   0.0000000   0.0000000   0.0000000   0.0000000   0.0000000   0.0000000   0.0000000   0.0000000   0.0000000   0.0000000
 NQMom=    0.0000000   0.0000000   0.0000000   0.0000000   0.0000000   0.0000000   0.0000000   0.0000000   0.0000000   0.0000000
 NMagM=    2.7928460   0.0000000   2.7928460   2.7928460   0.0000000   2.7928460   2.7928460   0.0000000   2.7928460   2.7928460
 AtZNuc=   1.0000000   8.0000000   1.0000000   1.0000000   8.0000000   1.0000000   1.0000000   8.0000000   1.0000000   1.0000000

  Atom        21          22          23          24          25          26          27          28          29          30
 IAtWgt=          16           1           1          16           1           1          16           1           1          16
 AtmWgt=  15.9949146   1.0078250   1.0078250  15.9949146   1.0078250   1.0078250  15.9949146   1.0078250   1.0078250  15.9949146
 NucSpn=           0           1           1           0           1           1           0           1           1           0
 AtZEff=   0.0000000   0.0000000   0.0000000   0.0000000   0.0000000   0.0000000   0.0000000   0.0000000   0.0000000   0.0000000
 NQMom=    0.0000000   0.0000000   0.0000000   0.0000000   0.0000000   0.0000000   0.0000000   0.0000000   0.0000000   0.0000000
 NMagM=    0.0000000   2.7928460   2.7928460   0.0000000   2.7928460   2.7928460   0.0000000   2.7928460   2.7928460   0.0000000
 AtZNuc=   8.0000000   1.0000000   1.0000000   8.0000000   1.0000000   1.0000000   8.0000000   1.0000000   1.0000000   8.0000000

  Atom        31          32          33          34          35          36          37          38          39          40
 IAtWgt=           1           1          16           1           1          16           1           1          16           1
 AtmWgt=   1.0078250   1.0078250  15.9949146   1.0078250   1.0078250  15.9949146   1.0078250   1.0078250  15.9949146   1.0078250
 NucSpn=           1           1           0           1           1           0           1           1           0           1
 AtZEff=   0.0000000   0.0000000   0.0000000   0.0000000   0.0000000   0.0000000   0.0000000   0.0000000   0.0000000   0.0000000
 NQMom=    0.0000000   0.0000000   0.0000000   0.0000000   0.0000000   0.0000000   0.0000000   0.0000000   0.0000000   0.0000000
 NMagM=    2.7928460   2.7928460   0.0000000   2.7928460   2.7928460   0.0000000   2.7928460   2.7928460   0.0000000   2.7928460
 AtZNuc=   1.0000000   1.0000000   8.0000000   1.0000000   1.0000000   8.0000000   1.0000000   1.0000000   8.0000000   1.0000000

  Atom        41          42          43          44          45          46          47          48          49          50
 IAtWgt=           1          16           1           1          16           1           1          16           1           1
 AtmWgt=   1.0078250  15.9949146   1.0078250   1.0078250  15.9949146   1.0078250   1.0078250  15.9949146   1.0078250   1.0078250
 NucSpn=           1           0           1           1           0           1           1           0           1           1
 AtZEff=   0.0000000   0.0000000   0.0000000   0.0000000   0.0000000   0.0000000   0.0000000   0.0000000   0.0000000   0.0000000
 NQMom=    0.0000000   0.0000000   0.0000000   0.0000000   0.0000000   0.0000000   0.0000000   0.0000000   0.0000000   0.0000000
 NMagM=    2.7928460   0.0000000   2.7928460   2.7928460   0.0000000   2.7928460   2.7928460   0.0000000   2.7928460   2.7928460
 AtZNuc=   1.0000000   8.0000000   1.0000000   1.0000000   8.0000000   1.0000000   1.0000000   8.0000000   1.0000000   1.0000000
 Background charge distribution read from input stream:
 Point Charges:
 XYZ=   -0.0784   -1.4291    5.3511 Q=   -0.8200 A=    0.0000 R=    0.0000 C=    0.0000
 XYZ=    0.1790   -0.5833    5.8184 Q=    0.4100 A=    0.0000 R=    0.0000 C=    0.0000
 XYZ=    0.7207   -1.8084    4.8846 Q=    0.4100 A=    0.0000 R=    0.0000 C=    0.0000
 XYZ=    1.7375   -2.4480    4.2797 Q=   -0.8200 A=    0.0000 R=    0.0000 C=    0.0000
 XYZ=    2.6283   -2.1861    3.9082 Q=    0.4100 A=    0.0000 R=    0.0000 C=    0.0000
 XYZ=    1.2695   -3.0484    3.6312 Q=    0.4100 A=    0.0000 R=    0.0000 C=    0.0000
 XYZ=    5.3574   -2.5318   -1.8140 Q=   -0.8200 A=    0.0000 R=    0.0000 C=    0.0000
 XYZ=    6.3139   -2.2402   -1.8081 Q=    0.4100 A=    0.0000 R=    0.0000 C=    0.0000
 XYZ=    5.1512   -3.0159   -0.9636 Q=    0.4100 A=    0.0000 R=    0.0000 C=    0.0000
 XYZ=    1.6340   -1.2252   -6.1932 Q=   -0.8200 A=    0.0000 R=    0.0000 C=    0.0000
 XYZ=    1.6559   -0.3592   -6.6927 Q=    0.4100 A=    0.0000 R=    0.0000 C=    0.0000
 XYZ=    0.6887   -1.5424   -6.1174 Q=    0.4100 A=    0.0000 R=    0.0000 C=    0.0000
 XYZ=    1.9296   -5.2525    2.1368 Q=   -0.8200 A=    0.0000 R=    0.0000 C=    0.0000
 XYZ=    1.1841   -4.6612    2.4445 Q=    0.4100 A=    0.0000 R=    0.0000 C=    0.0000
 XYZ=    2.2988   -5.7568    2.9175 Q=    0.4100 A=    0.0000 R=    0.0000 C=    0.0000
 XYZ=    3.9205   -1.9250    3.7468 Q=   -0.8200 A=    0.0000 R=    0.0000 C=    0.0000
 XYZ=    4.3337   -1.0889    4.1077 Q=    0.4100 A=    0.0000 R=    0.0000 C=    0.0000
 XYZ=    4.4848   -2.2810    3.0020 Q=    0.4100 A=    0.0000 R=    0.0000 C=    0.0000
 XYZ=   -2.6408    4.0215   -5.0863 Q=   -0.8200 A=    0.0000 R=    0.0000 C=    0.0000
 XYZ=   -1.9815    4.1192   -4.3407 Q=    0.4100 A=    0.0000 R=    0.0000 C=    0.0000
 XYZ=   -3.5475    3.8365   -4.7072 Q=    0.4100 A=    0.0000 R=    0.0000 C=    0.0000
 XYZ=   -1.9114    5.9686   -2.0520 Q=   -0.8200 A=    0.0000 R=    0.0000 C=    0.0000
 XYZ=   -2.4326    5.3753   -1.4385 Q=    0.4100 A=    0.0000 R=    0.0000 C=    0.0000
 XYZ=   -1.9544    6.9110   -1.7205 Q=    0.4100 A=    0.0000 R=    0.0000 C=    0.0000
 XYZ=    2.4012    4.9752    1.9099 Q=   -0.8200 A=    0.0000 R=    0.0000 C=    0.0000
 XYZ=    1.8685    4.3036    1.3948 Q=    0.4100 A=    0.0000 R=    0.0000 C=    0.0000
 XYZ=    2.9582    5.5142    1.2780 Q=    0.4100 A=    0.0000 R=    0.0000 C=    0.0000
 XYZ=    5.5489   -3.8085    0.1532 Q=   -0.8200 A=    0.0000 R=    0.0000 C=    0.0000
 XYZ=    4.7603   -4.3682    0.4079 Q=    0.4100 A=    0.0000 R=    0.0000 C=    0.0000
 XYZ=    6.2649   -4.3945   -0.2261 Q=    0.4100 A=    0.0000 R=    0.0000 C=    0.0000
 XYZ=    3.7391   -5.3994    0.5903 Q=   -0.8200 A=    0.0000 R=    0.0000 C=    0.0000
 XYZ=    2.9696   -5.4067    1.2289 Q=    0.4100 A=    0.0000 R=    0.0000 C=    0.0000
 XYZ=    3.6092   -6.1149   -0.0963 Q=    0.4100 A=    0.0000 R=    0.0000 C=    0.0000
 XYZ=    6.6810    0.5017   -1.0230 Q=   -0.8200 A=    0.0000 R=    0.0000 C=    0.0000
 XYZ=    5.8748    0.9316   -1.4295 Q=    0.4100 A=    0.0000 R=    0.0000 C=    0.0000
 XYZ=    6.4034   -0.0517   -0.2378 Q=    0.4100 A=    0.0000 R=    0.0000 C=    0.0000
 XYZ=    5.5680   -2.7957    2.2509 Q=   -0.8200 A=    0.0000 R=    0.0000 C=    0.0000
 XYZ=    5.6007   -3.1312    1.3094 Q=    0.4100 A=    0.0000 R=    0.0000 C=    0.0000
 XYZ=    5.8886   -3.5116    2.8712 Q=    0.4100 A=    0.0000 R=    0.0000 C=    0.0000
 XYZ=   -2.5013    6.7146    1.0901 Q=   -0.8200 A=    0.0000 R=    0.0000 C=    0.0000
 XYZ=   -2.7821    7.3698    1.7916 Q=    0.4100 A=    0.0000 R=    0.0000 C=    0.0000
 XYZ=   -2.9593    5.8399    1.2486 Q=    0.4100 A=    0.0000 R=    0.0000 C=    0.0000
 XYZ=   -5.5525    3.2623   -1.5842 Q=   -0.8200 A=    0.0000 R=    0.0000 C=    0.0000
 XYZ=   -5.8125    3.9280   -0.8848 Q=    0.4100 A=    0.0000 R=    0.0000 C=    0.0000
 XYZ=   -6.1257    2.4474   -1.4982 Q=    0.4100 A=    0.0000 R=    0.0000 C=    0.0000
 XYZ=   -2.9913    1.6788   -6.0651 Q=   -0.8200 A=    0.0000 R=    0.0000 C=    0.0000
 XYZ=   -2.6265    2.5784   -5.8250 Q=    0.4100 A=    0.0000 R=    0.0000 C=    0.0000
 XYZ=   -3.2943    1.6854   -7.0181 Q=    0.4100 A=    0.0000 R=    0.0000 C=    0.0000
 XYZ=   -5.3218   -0.7103    4.6967 Q=   -0.8200 A=    0.0000 R=    0.0000 C=    0.0000
 XYZ=   -4.3583   -0.5439    4.4870 Q=    0.4100 A=    0.0000 R=    0.0000 C=    0.0000
 XYZ=   -5.7345   -1.2492    3.9623 Q=    0.4100 A=    0.0000 R=    0.0000 C=    0.0000
 XYZ=    3.3644   -2.5868   -7.2866 Q=   -0.8200 A=    0.0000 R=    0.0000 C=    0.0000
 XYZ=    3.3763   -3.5152   -6.9150 Q=    0.4100 A=    0.0000 R=    0.0000 C=    0.0000
 XYZ=    2.6928   -2.0375   -6.7894 Q=    0.4100 A=    0.0000 R=    0.0000 C=    0.0000
 XYZ=   -5.6942    3.7408    1.8243 Q=   -0.8200 A=    0.0000 R=    0.0000 C=    0.0000
 XYZ=   -6.0710    4.1663    1.0015 Q=    0.4100 A=    0.0000 R=    0.0000 C=    0.0000
 XYZ=   -6.2761    3.9579    2.6081 Q=    0.4100 A=    0.0000 R=    0.0000 C=    0.0000
 XYZ=    0.9729    5.6561   -1.2914 Q=   -0.8200 A=    0.0000 R=    0.0000 C=    0.0000
 XYZ=    1.8988    5.3313   -1.4844 Q=    0.4100 A=    0.0000 R=    0.0000 C=    0.0000
 XYZ=    0.4735    5.7689   -2.1504 Q=    0.4100 A=    0.0000 R=    0.0000 C=    0.0000
 XYZ=    3.5745   -6.0433   -3.1987 Q=   -0.8200 A=    0.0000 R=    0.0000 C=    0.0000
 XYZ=    3.8795   -5.2102   -3.6602 Q=    0.4100 A=    0.0000 R=    0.0000 C=    0.0000
 XYZ=    2.6542   -6.2794   -3.5108 Q=    0.4100 A=    0.0000 R=    0.0000 C=    0.0000
 XYZ=    5.6009    2.3540    2.2836 Q=   -0.8200 A=    0.0000 R=    0.0000 C=    0.0000
 XYZ=    4.8260    2.8834    2.6287 Q=    0.4100 A=    0.0000 R=    0.0000 C=    0.0000
 XYZ=    5.2888    1.7408    1.5579 Q=    0.4100 A=    0.0000 R=    0.0000 C=    0.0000
 XYZ=   -5.5939   -2.3309    3.0416 Q=   -0.8200 A=    0.0000 R=    0.0000 C=    0.0000
 XYZ=   -4.6482   -2.1768    3.3280 Q=    0.4100 A=    0.0000 R=    0.0000 C=    0.0000
 XYZ=   -5.8271   -3.2952    3.1668 Q=    0.4100 A=    0.0000 R=    0.0000 C=    0.0000
 XYZ=    3.0771    4.6644   -1.3775 Q=   -0.8200 A=    0.0000 R=    0.0000 C=    0.0000
 XYZ=    3.4861    5.2682   -0.6932 Q=    0.4100 A=    0.0000 R=    0.0000 C=    0.0000
 XYZ=    3.8011    4.2037   -1.8908 Q=    0.4100 A=    0.0000 R=    0.0000 C=    0.0000
 XYZ=   -1.0338   -3.0732    6.7215 Q=   -0.8200 A=    0.0000 R=    0.0000 C=    0.0000
 XYZ=   -0.5494   -2.3688    6.2025 Q=    0.4100 A=    0.0000 R=    0.0000 C=    0.0000
 XYZ=   -1.9727   -3.1483    6.3854 Q=    0.4100 A=    0.0000 R=    0.0000 C=    0.0000
 XYZ=   -0.0042    5.8743   -3.3867 Q=   -0.8200 A=    0.0000 R=    0.0000 C=    0.0000
 XYZ=   -0.8789    6.0597   -2.9388 Q=    0.4100 A=    0.0000 R=    0.0000 C=    0.0000
 XYZ=   -0.1697    5.4781   -4.2899 Q=    0.4100 A=    0.0000 R=    0.0000 C=    0.0000
 XYZ=   -4.8508    3.8153   -3.8069 Q=   -0.8200 A=    0.0000 R=    0.0000 C=    0.0000
 XYZ=   -5.1707    3.7733   -2.8603 Q=    0.4100 A=    0.0000 R=    0.0000 C=    0.0000
 XYZ=   -5.5727    3.4895   -4.4174 Q=    0.4100 A=    0.0000 R=    0.0000 C=    0.0000
 XYZ=    1.6098   -7.2238    0.7874 Q=   -0.8200 A=    0.0000 R=    0.0000 C=    0.0000
 XYZ=    1.6090   -6.4581    1.4306 Q=    0.4100 A=    0.0000 R=    0.0000 C=    0.0000
 XYZ=    2.3101   -7.0723    0.0898 Q=    0.4100 A=    0.0000 R=    0.0000 C=    0.0000
 XYZ=   -7.4962    2.1266    1.2804 Q=   -0.8200 A=    0.0000 R=    0.0000 C=    0.0000
 XYZ=   -6.6686    2.6626    1.4471 Q=    0.4100 A=    0.0000 R=    0.0000 C=    0.0000
 XYZ=   -7.5027    1.8097    0.3319 Q=    0.4100 A=    0.0000 R=    0.0000 C=    0.0000
 XYZ=   -5.2736    0.8297   -5.3036 Q=   -0.8200 A=    0.0000 R=    0.0000 C=    0.0000
 XYZ=   -5.2653   -0.0379   -4.8063 Q=    0.4100 A=    0.0000 R=    0.0000 C=    0.0000
 XYZ=   -4.3557    1.0243   -5.6495 Q=    0.4100 A=    0.0000 R=    0.0000 C=    0.0000
 XYZ=    3.7251   -4.7584   -6.4785 Q=   -0.8200 A=    0.0000 R=    0.0000 C=    0.0000
 XYZ=    3.8221   -4.5201   -5.5121 Q=    0.4100 A=    0.0000 R=    0.0000 C=    0.0000
 XYZ=    4.6293   -4.9182   -6.8747 Q=    0.4100 A=    0.0000 R=    0.0000 C=    0.0000
 XYZ=    2.5074   -3.3343    6.2424 Q=   -0.8200 A=    0.0000 R=    0.0000 C=    0.0000
 XYZ=    2.2128   -3.0140    5.3420 Q=    0.4100 A=    0.0000 R=    0.0000 C=    0.0000
 XYZ=    2.9739   -2.5923    6.7239 Q=    0.4100 A=    0.0000 R=    0.0000 C=    0.0000
 XYZ=    1.4958   -0.0066    6.7729 Q=   -0.8200 A=    0.0000 R=    0.0000 C=    0.0000
 XYZ=    1.9606   -0.8154    7.1333 Q=    0.4100 A=    0.0000 R=    0.0000 C=    0.0000
 XYZ=    2.1698    0.6149    6.3736 Q=    0.4100 A=    0.0000 R=    0.0000 C=    0.0000
 XYZ=    4.6301    3.6190   -2.8287 Q=   -0.8200 A=    0.0000 R=    0.0000 C=    0.0000
 XYZ=    5.5771    3.6470   -2.5084 Q=    0.4100 A=    0.0000 R=    0.0000 C=    0.0000
 XYZ=    4.5986    3.8652   -3.7974 Q=    0.4100 A=    0.0000 R=    0.0000 C=    0.0000
 XYZ=   -0.1427    7.2911    1.5780 Q=   -0.8200 A=    0.0000 R=    0.0000 C=    0.0000
 XYZ=   -0.4854    7.9035    2.2904 Q=    0.4100 A=    0.0000 R=    0.0000 C=    0.0000
 XYZ=   -0.9137    6.8518    1.1169 Q=    0.4100 A=    0.0000 R=    0.0000 C=    0.0000
 XYZ=    6.2517   -0.9003   -5.0817 Q=   -0.8200 A=    0.0000 R=    0.0000 C=    0.0000
 XYZ=    6.8226   -0.0893   -4.9531 Q=    0.4100 A=    0.0000 R=    0.0000 C=    0.0000
 XYZ=    6.7524   -1.7116   -4.7797 Q=    0.4100 A=    0.0000 R=    0.0000 C=    0.0000
 XYZ=    4.0325    3.9648    3.4201 Q=   -0.8200 A=    0.0000 R=    0.0000 C=    0.0000
 XYZ=    3.6429    3.7397    4.3131 Q=    0.4100 A=    0.0000 R=    0.0000 C=    0.0000
 XYZ=    3.3102    4.3037    2.8172 Q=    0.4100 A=    0.0000 R=    0.0000 C=    0.0000
 XYZ=    0.0105    5.1245   -5.6830 Q=   -0.8200 A=    0.0000 R=    0.0000 C=    0.0000
 XYZ=   -0.6720    4.7624   -6.3178 Q=    0.4100 A=    0.0000 R=    0.0000 C=    0.0000
 XYZ=    0.8906    4.6804   -5.8511 Q=    0.4100 A=    0.0000 R=    0.0000 C=    0.0000
 XYZ=    7.7059   -1.6558   -1.6340 Q=   -0.8200 A=    0.0000 R=    0.0000 C=    0.0000
 XYZ=    7.2844   -0.7503   -1.5847 Q=    0.4100 A=    0.0000 R=    0.0000 C=    0.0000
 XYZ=    8.1823   -1.8487   -0.7761 Q=    0.4100 A=    0.0000 R=    0.0000 C=    0.0000
 XYZ=    0.7455    6.1770    3.4175 Q=   -0.8200 A=    0.0000 R=    0.0000 C=    0.0000
 XYZ=    0.4393    6.7012    2.6228 Q=    0.4100 A=    0.0000 R=    0.0000 C=    0.0000
 XYZ=    1.3873    5.4691    3.1226 Q=    0.4100 A=    0.0000 R=    0.0000 C=    0.0000
 XYZ=    4.7816   -3.6692    5.1638 Q=   -0.8200 A=    0.0000 R=    0.0000 C=    0.0000
 XYZ=    4.4806   -2.9839    4.5006 Q=    0.4100 A=    0.0000 R=    0.0000 C=    0.0000
 XYZ=    3.9843   -4.0635    5.6208 Q=    0.4100 A=    0.0000 R=    0.0000 C=    0.0000
 XYZ=    3.2327   -6.9708   -0.9673 Q=   -0.8200 A=    0.0000 R=    0.0000 C=    0.0000
 XYZ=    4.0194   -7.5555   -0.7691 Q=    0.4100 A=    0.0000 R=    0.0000 C=    0.0000
 XYZ=    3.3085   -6.6147   -1.8987 Q=    0.4100 A=    0.0000 R=    0.0000 C=    0.0000
 XYZ=   -2.0653    4.4270   -7.2315 Q=   -0.8200 A=    0.0000 R=    0.0000 C=    0.0000
 XYZ=   -2.3024    4.2772   -6.2716 Q=    0.4100 A=    0.0000 R=    0.0000 C=    0.0000
 XYZ=   -2.8755    4.7339   -7.7309 Q=    0.4100 A=    0.0000 R=    0.0000 C=    0.0000
 XYZ=    5.3293   -1.3766   -7.1397 Q=   -0.8200 A=    0.0000 R=    0.0000 C=    0.0000
 XYZ=    5.7199   -1.2331   -6.2304 Q=    0.4100 A=    0.0000 R=    0.0000 C=    0.0000
 XYZ=    4.5533   -2.0040   -7.0738 Q=    0.4100 A=    0.0000 R=    0.0000 C=    0.0000
 XYZ=    4.6564   -6.5246    2.5112 Q=   -0.8200 A=    0.0000 R=    0.0000 C=    0.0000
 XYZ=    4.3653   -6.1398    1.6352 Q=    0.4100 A=    0.0000 R=    0.0000 C=    0.0000
 XYZ=    3.8556   -6.6789    3.0900 Q=    0.4100 A=    0.0000 R=    0.0000 C=    0.0000
 XYZ=    2.0444    0.8336   -7.7036 Q=   -0.8200 A=    0.0000 R=    0.0000 C=    0.0000
 XYZ=    3.0435    0.8484   -7.6655 Q=    0.4100 A=    0.0000 R=    0.0000 C=    0.0000
 XYZ=    1.7498    0.5379   -8.6123 Q=    0.4100 A=    0.0000 R=    0.0000 C=    0.0000
 XYZ=    1.6491    7.3110    0.0953 Q=   -0.8200 A=    0.0000 R=    0.0000 C=    0.0000
 XYZ=    0.9851    7.3526    0.8419 Q=    0.4100 A=    0.0000 R=    0.0000 C=    0.0000
 XYZ=    1.4214    6.5491   -0.5111 Q=    0.4100 A=    0.0000 R=    0.0000 C=    0.0000
 XYZ=    8.0891   -0.4766    1.9146 Q=   -0.8200 A=    0.0000 R=    0.0000 C=    0.0000
 XYZ=    7.8564    0.0051    2.7595 Q=    0.4100 A=    0.0000 R=    0.0000 C=    0.0000
 XYZ=    7.2498   -0.7405    1.4393 Q=    0.4100 A=    0.0000 R=    0.0000 C=    0.0000
 XYZ=    3.4228    1.4056    6.1092 Q=   -0.8200 A=    0.0000 R=    0.0000 C=    0.0000
 XYZ=    4.0567    1.4080    6.8826 Q=    0.4100 A=    0.0000 R=    0.0000 C=    0.0000
 XYZ=    3.4054    2.3132    5.6897 Q=    0.4100 A=    0.0000 R=    0.0000 C=    0.0000
 XYZ=   -0.8349   -5.5144    4.0291 Q=   -0.8200 A=    0.0000 R=    0.0000 C=    0.0000
 XYZ=   -1.1348   -6.1815    3.3471 Q=    0.4100 A=    0.0000 R=    0.0000 C=    0.0000
 XYZ=   -0.0668   -5.8902    4.5475 Q=    0.4100 A=    0.0000 R=    0.0000 C=    0.0000
 XYZ=   -7.0023   -2.3982    1.3274 Q=   -0.8200 A=    0.0000 R=    0.0000 C=    0.0000
 XYZ=   -6.3081   -2.1231    1.9925 Q=    0.4100 A=    0.0000 R=    0.0000 C=    0.0000
 XYZ=   -6.9756   -3.3908    1.2090 Q=    0.4100 A=    0.0000 R=    0.0000 C=    0.0000
 XYZ=   -7.4769    1.3621   -0.9540 Q=   -0.8200 A=    0.0000 R=    0.0000 C=    0.0000
 XYZ=   -7.6104    0.3721   -0.9092 Q=    0.4100 A=    0.0000 R=    0.0000 C=    0.0000
 XYZ=   -7.9401    1.7246   -1.7628 Q=    0.4100 A=    0.0000 R=    0.0000 C=    0.0000
 XYZ=   -6.6152    4.8511   -0.0849 Q=   -0.8200 A=    0.0000 R=    0.0000 C=    0.0000
 XYZ=   -6.2884    5.7753   -0.2825 Q=    0.4100 A=    0.0000 R=    0.0000 C=    0.0000
 XYZ=   -7.3756    4.6289   -0.6953 Q=    0.4100 A=    0.0000 R=    0.0000 C=    0.0000
 XYZ=    5.1019   -0.2103    5.0573 Q=   -0.8200 A=    0.0000 R=    0.0000 C=    0.0000
 XYZ=    5.3955   -0.7943    5.8142 Q=    0.4100 A=    0.0000 R=    0.0000 C=    0.0000
 XYZ=    4.5275    0.5285    5.4098 Q=    0.4100 A=    0.0000 R=    0.0000 C=    0.0000
 XYZ=   -3.0628   -3.3967    5.9769 Q=   -0.8200 A=    0.0000 R=    0.0000 C=    0.0000
 XYZ=   -3.7076   -3.2932    6.7342 Q=    0.4100 A=    0.0000 R=    0.0000 C=    0.0000
 XYZ=   -3.0950   -4.3370    5.6380 Q=    0.4100 A=    0.0000 R=    0.0000 C=    0.0000
 XYZ=   -3.9743    6.2065   -3.8549 Q=   -0.8200 A=    0.0000 R=    0.0000 C=    0.0000
 XYZ=   -3.1975    6.2292   -3.2255 Q=    0.4100 A=    0.0000 R=    0.0000 C=    0.0000
 XYZ=   -4.2897    5.2635   -3.9612 Q=    0.4100 A=    0.0000 R=    0.0000 C=    0.0000
 XYZ=    5.9684   -6.2722   -2.3493 Q=   -0.8200 A=    0.0000 R=    0.0000 C=    0.0000
 XYZ=    5.0374   -6.1615   -2.6972 Q=    0.4100 A=    0.0000 R=    0.0000 C=    0.0000
 XYZ=    6.5220   -6.7563   -3.0269 Q=    0.4100 A=    0.0000 R=    0.0000 C=    0.0000
 XYZ=    1.4915    3.1959   -7.6393 Q=   -0.8200 A=    0.0000 R=    0.0000 C=    0.0000
 XYZ=    2.0195    3.7804   -7.0232 Q=    0.4100 A=    0.0000 R=    0.0000 C=    0.0000
 XYZ=    1.8534    2.2642   -7.6065 Q=    0.4100 A=    0.0000 R=    0.0000 C=    0.0000
 XYZ=   -2.1732    8.0439   -0.9518 Q=   -0.8200 A=    0.0000 R=    0.0000 C=    0.0000
 XYZ=   -1.2492    8.4264   -0.9536 Q=    0.4100 A=    0.0000 R=    0.0000 C=    0.0000
 XYZ=   -2.3379    7.5744   -0.0843 Q=    0.4100 A=    0.0000 R=    0.0000 C=    0.0000
 XYZ=    7.7963   -2.8092   -4.1260 Q=   -0.8200 A=    0.0000 R=    0.0000 C=    0.0000
 XYZ=    8.6482   -2.6359   -3.6318 Q=    0.4100 A=    0.0000 R=    0.0000 C=    0.0000
 XYZ=    7.1871   -3.3614   -3.5567 Q=    0.4100 A=    0.0000 R=    0.0000 C=    0.0000
 XYZ=    6.9220    0.7906    3.7314 Q=   -0.8200 A=    0.0000 R=    0.0000 C=    0.0000
 XYZ=    6.3379    1.3181    3.1145 Q=    0.4100 A=    0.0000 R=    0.0000 C=    0.0000
 XYZ=    6.3514    0.2595    4.3578 Q=    0.4100 A=    0.0000 R=    0.0000 C=    0.0000
 XYZ=   -7.7500   -1.1509   -0.6792 Q=   -0.8200 A=    0.0000 R=    0.0000 C=    0.0000
 XYZ=   -8.0008   -1.9204   -1.2665 Q=    0.4100 A=    0.0000 R=    0.0000 C=    0.0000
 XYZ=   -7.3008   -1.4940    0.1459 Q=    0.4100 A=    0.0000 R=    0.0000 C=    0.0000
 XYZ=    0.4285    1.4843    8.5584 Q=   -0.8200 A=    0.0000 R=    0.0000 C=    0.0000
 XYZ=    0.5239    0.8900    7.7598 Q=    0.4100 A=    0.0000 R=    0.0000 C=    0.0000
 XYZ=   -0.5415    1.6111    8.7656 Q=    0.4100 A=    0.0000 R=    0.0000 C=    0.0000
 XYZ=    4.8270    4.1073   -5.2372 Q=   -0.8200 A=    0.0000 R=    0.0000 C=    0.0000
 XYZ=    5.6768    4.6159   -5.0987 Q=    0.4100 A=    0.0000 R=    0.0000 C=    0.0000
 XYZ=    5.0407    3.1600   -5.4762 Q=    0.4100 A=    0.0000 R=    0.0000 C=    0.0000
 XYZ=    3.2224    3.6732    5.5880 Q=   -0.8200 A=    0.0000 R=    0.0000 C=    0.0000
 XYZ=    3.9706    4.1608    6.0381 Q=    0.4100 A=    0.0000 R=    0.0000 C=    0.0000
 XYZ=    2.3659    4.1678    5.7354 Q=    0.4100 A=    0.0000 R=    0.0000 C=    0.0000
 XYZ=    4.4065    0.8683   -7.5495 Q=   -0.8200 A=    0.0000 R=    0.0000 C=    0.0000
 XYZ=    5.0419    1.4932   -7.0958 Q=    0.4100 A=    0.0000 R=    0.0000 C=    0.0000
 XYZ=    4.8079   -0.0469   -7.5857 Q=    0.4100 A=    0.0000 R=    0.0000 C=    0.0000
 XYZ=    8.1233    2.3440   -1.4154 Q=   -0.8200 A=    0.0000 R=    0.0000 C=    0.0000
 XYZ=    7.5451    1.5415   -1.2675 Q=    0.4100 A=    0.0000 R=    0.0000 C=    0.0000
 XYZ=    8.4940    2.6537   -0.5398 Q=    0.4100 A=    0.0000 R=    0.0000 C=    0.0000
 XYZ=   -2.8040   -5.5986    5.2194 Q=   -0.8200 A=    0.0000 R=    0.0000 C=    0.0000
 XYZ=   -1.9818   -5.4883    4.6611 Q=    0.4100 A=    0.0000 R=    0.0000 C=    0.0000
 XYZ=   -2.6491   -6.3113    5.9036 Q=    0.4100 A=    0.0000 R=    0.0000 C=    0.0000
 XYZ=    2.7819    4.5631   -6.1709 Q=   -0.8200 A=    0.0000 R=    0.0000 C=    0.0000
 XYZ=    3.6882    4.2893   -5.8487 Q=    0.4100 A=    0.0000 R=    0.0000 C=    0.0000
 XYZ=    2.6002    5.5062   -5.8924 Q=    0.4100 A=    0.0000 R=    0.0000 C=    0.0000
 XYZ=   -0.4976   -8.1129    0.8085 Q=   -0.8200 A=    0.0000 R=    0.0000 C=    0.0000
 XYZ=    0.4326   -7.7484    0.7647 Q=    0.4100 A=    0.0000 R=    0.0000 C=    0.0000
 XYZ=   -0.5957   -8.8564    0.1470 Q=    0.4100 A=    0.0000 R=    0.0000 C=    0.0000
 XYZ=   -8.2409    0.5392    2.8843 Q=   -0.8200 A=    0.0000 R=    0.0000 C=    0.0000
 XYZ=   -7.9039    1.2082    2.2219 Q=    0.4100 A=    0.0000 R=    0.0000 C=    0.0000
 XYZ=   -7.9018    0.7726    3.7957 Q=    0.4100 A=    0.0000 R=    0.0000 C=    0.0000
 XYZ=   -7.3151    0.5976    4.9820 Q=   -0.8200 A=    0.0000 R=    0.0000 C=    0.0000
 XYZ=   -6.3829    0.2800    4.8085 Q=    0.4100 A=    0.0000 R=    0.0000 C=    0.0000
 XYZ=   -7.7948   -0.0711    5.5501 Q=    0.4100 A=    0.0000 R=    0.0000 C=    0.0000
 XYZ=    0.7114   -4.5757    7.1775 Q=   -0.8200 A=    0.0000 R=    0.0000 C=    0.0000
 XYZ=    1.5412   -4.1123    6.8664 Q=    0.4100 A=    0.0000 R=    0.0000 C=    0.0000
 XYZ=   -0.0912   -4.0936    6.8260 Q=    0.4100 A=    0.0000 R=    0.0000 C=    0.0000
 XYZ=    0.6211    8.2579   -3.4293 Q=   -0.8200 A=    0.0000 R=    0.0000 C=    0.0000
 XYZ=    0.3839    8.7713   -4.2541 Q=    0.4100 A=    0.0000 R=    0.0000 C=    0.0000
 XYZ=    0.3597    7.2998   -3.5464 Q=    0.4100 A=    0.0000 R=    0.0000 C=    0.0000
 XYZ=   -7.0998    2.5346   -4.7371 Q=   -0.8200 A=    0.0000 R=    0.0000 C=    0.0000
 XYZ=   -6.9399    2.7854   -5.6919 Q=    0.4100 A=    0.0000 R=    0.0000 C=    0.0000
 XYZ=   -6.6220    1.6803   -4.5325 Q=    0.4100 A=    0.0000 R=    0.0000 C=    0.0000
 XYZ=    6.0578   -4.7978    3.4687 Q=   -0.8200 A=    0.0000 R=    0.0000 C=    0.0000
 XYZ=    5.6073   -4.3831    4.2593 Q=    0.4100 A=    0.0000 R=    0.0000 C=    0.0000
 XYZ=    5.5975   -5.6539    3.2340 Q=    0.4100 A=    0.0000 R=    0.0000 C=    0.0000
 XYZ=   -2.3830   -2.2656    8.4744 Q=   -0.8200 A=    0.0000 R=    0.0000 C=    0.0000
 XYZ=   -1.7903   -2.5158    7.7088 Q=    0.4100 A=    0.0000 R=    0.0000 C=    0.0000
 XYZ=   -1.9601   -2.5573    9.3324 Q=    0.4100 A=    0.0000 R=    0.0000 C=    0.0000
 XYZ=    5.8636    2.2810   -6.2391 Q=   -0.8200 A=    0.0000 R=    0.0000 C=    0.0000
 XYZ=    6.1551    3.0324   -6.8311 Q=    0.4100 A=    0.0000 R=    0.0000 C=    0.0000
 XYZ=    6.6632    1.8784   -5.7935 Q=    0.4100 A=    0.0000 R=    0.0000 C=    0.0000
 XYZ=   -6.0336   -2.1098    6.4613 Q=   -0.8200 A=    0.0000 R=    0.0000 C=    0.0000
 XYZ=   -5.5013   -1.6224    5.7692 Q=    0.4100 A=    0.0000 R=    0.0000 C=    0.0000
 XYZ=   -5.4127   -2.5577    7.1048 Q=    0.4100 A=    0.0000 R=    0.0000 C=    0.0000
 XYZ=   -2.3872    6.1239    5.4122 Q=   -0.8200 A=    0.0000 R=    0.0000 C=    0.0000
 XYZ=   -3.0976    6.7314    5.0569 Q=    0.4100 A=    0.0000 R=    0.0000 C=    0.0000
 XYZ=   -2.8113    5.3032    5.7952 Q=    0.4100 A=    0.0000 R=    0.0000 C=    0.0000
 XYZ=   -0.4870    3.5147   -8.7606 Q=   -0.8200 A=    0.0000 R=    0.0000 C=    0.0000
 XYZ=   -1.1600    3.7085   -8.0467 Q=    0.4100 A=    0.0000 R=    0.0000 C=    0.0000
 XYZ=    0.4225    3.4442   -8.3509 Q=    0.4100 A=    0.0000 R=    0.0000 C=    0.0000
 XYZ=   -0.5304    7.2494    4.9286 Q=   -0.8200 A=    0.0000 R=    0.0000 C=    0.0000
 XYZ=    0.0880    6.6913    4.3753 Q=    0.4100 A=    0.0000 R=    0.0000 C=    0.0000
 XYZ=   -1.3189    6.6997    5.2043 Q=    0.4100 A=    0.0000 R=    0.0000 C=    0.0000
 XYZ=    2.4522   -6.8500    3.8349 Q=   -0.8200 A=    0.0000 R=    0.0000 C=    0.0000
 XYZ=    1.8209   -6.5741    4.5597 Q=    0.4100 A=    0.0000 R=    0.0000 C=    0.0000
 XYZ=    2.1343   -7.7043    3.4234 Q=    0.4100 A=    0.0000 R=    0.0000 C=    0.0000
 XYZ=   -1.5602   -7.2043    2.6314 Q=   -0.8200 A=    0.0000 R=    0.0000 C=    0.0000
 XYZ=   -1.1621   -7.4792    1.7561 Q=    0.4100 A=    0.0000 R=    0.0000 C=    0.0000
 XYZ=   -2.5463   -7.0774    2.5237 Q=    0.4100 A=    0.0000 R=    0.0000 C=    0.0000
 XYZ=    7.5362    1.1604   -4.8301 Q=   -0.8200 A=    0.0000 R=    0.0000 C=    0.0000
 XYZ=    7.5217    2.0876   -4.4557 Q=    0.4100 A=    0.0000 R=    0.0000 C=    0.0000
 XYZ=    8.3741    0.6973   -4.5410 Q=    0.4100 A=    0.0000 R=    0.0000 C=    0.0000
 XYZ=    0.0551    3.8676    7.9293 Q=   -0.8200 A=    0.0000 R=    0.0000 C=    0.0000
 XYZ=    0.3156    4.2292    8.8245 Q=    0.4100 A=    0.0000 R=    0.0000 C=    0.0000
 XYZ=    0.2887    2.8964    7.8813 Q=    0.4100 A=    0.0000 R=    0.0000 C=    0.0000
 XYZ=    1.2559    5.0809    6.1515 Q=   -0.8200 A=    0.0000 R=    0.0000 C=    0.0000
 XYZ=    0.7828    5.8941    5.8124 Q=    0.4100 A=    0.0000 R=    0.0000 C=    0.0000
 XYZ=    0.6653    4.5967    6.7971 Q=    0.4100 A=    0.0000 R=    0.0000 C=    0.0000
 XYZ=    7.3223   -5.2797   -0.6690 Q=   -0.8200 A=    0.0000 R=    0.0000 C=    0.0000
 XYZ=    8.2720   -5.2298   -0.9783 Q=    0.4100 A=    0.0000 R=    0.0000 C=    0.0000
 XYZ=    6.7586   -5.6868   -1.3878 Q=    0.4100 A=    0.0000 R=    0.0000 C=    0.0000
 XYZ=   -6.7194    4.4685    3.9080 Q=   -0.8200 A=    0.0000 R=    0.0000 C=    0.0000
 XYZ=   -7.4482    5.1497    3.8378 Q=    0.4100 A=    0.0000 R=    0.0000 C=    0.0000
 XYZ=   -6.9494    3.8067    4.6216 Q=    0.4100 A=    0.0000 R=    0.0000 C=    0.0000
 XYZ=    7.6743    3.4127    2.2704 Q=   -0.8200 A=    0.0000 R=    0.0000 C=    0.0000
 XYZ=    7.9772    3.2241    3.2046 Q=    0.4100 A=    0.0000 R=    0.0000 C=    0.0000
 XYZ=    6.7974    2.9608    2.1067 Q=    0.4100 A=    0.0000 R=    0.0000 C=    0.0000
 XYZ=    3.8407    6.1432    0.3171 Q=   -0.8200 A=    0.0000 R=    0.0000 C=    0.0000
 XYZ=    3.1993    6.9103    0.3022 Q=    0.4100 A=    0.0000 R=    0.0000 C=    0.0000
 XYZ=    4.7420    6.4679    0.6039 Q=    0.4100 A=    0.0000 R=    0.0000 C=    0.0000
 XYZ=   -5.5735    5.7104    5.4526 Q=   -0.8200 A=    0.0000 R=    0.0000 C=    0.0000
 XYZ=   -6.4493    6.0515    5.7939 Q=    0.4100 A=    0.0000 R=    0.0000 C=    0.0000
 XYZ=   -5.7184    5.2233    4.5913 Q=    0.4100 A=    0.0000 R=    0.0000 C=    0.0000
 XYZ=   -5.7534    1.0188   -7.6938 Q=   -0.8200 A=    0.0000 R=    0.0000 C=    0.0000
 XYZ=   -6.3012    0.3352   -8.1760 Q=    0.4100 A=    0.0000 R=    0.0000 C=    0.0000
 XYZ=   -5.7036    0.7819   -6.7235 Q=    0.4100 A=    0.0000 R=    0.0000 C=    0.0000
 XYZ=   -5.8832    7.0256   -0.5114 Q=   -0.8200 A=    0.0000 R=    0.0000 C=    0.0000
 XYZ=   -5.4189    7.7000   -1.0856 Q=    0.4100 A=    0.0000 R=    0.0000 C=    0.0000
 XYZ=   -6.6089    7.4748    0.0098 Q=    0.4100 A=    0.0000 R=    0.0000 C=    0.0000
 XYZ=    0.1122    8.6475   -1.1017 Q=   -0.8200 A=    0.0000 R=    0.0000 C=    0.0000
 XYZ=    0.2418    8.4197   -2.0668 Q=    0.4100 A=    0.0000 R=    0.0000 C=    0.0000
 XYZ=    0.7936    8.1654   -0.5510 Q=    0.4100 A=    0.0000 R=    0.0000 C=    0.0000
 XYZ=   -9.1376    3.6790    1.9236 Q=   -0.8200 A=    0.0000 R=    0.0000 C=    0.0000
 XYZ=   -8.4448    2.9815    1.7406 Q=    0.4100 A=    0.0000 R=    0.0000 C=    0.0000
 XYZ=   -9.9008    3.2680    2.4223 Q=    0.4100 A=    0.0000 R=    0.0000 C=    0.0000
 XYZ=   -3.8039    2.2728   -8.1397 Q=   -0.8200 A=    0.0000 R=    0.0000 C=    0.0000
 XYZ=   -4.6294    1.7143   -8.0571 Q=    0.4100 A=    0.0000 R=    0.0000 C=    0.0000
 XYZ=   -4.0389    3.2361   -8.0099 Q=    0.4100 A=    0.0000 R=    0.0000 C=    0.0000
 XYZ=    6.8230    4.1175   -2.2280 Q=   -0.8200 A=    0.0000 R=    0.0000 C=    0.0000
 XYZ=    7.4308    3.4232   -1.8424 Q=    0.4100 A=    0.0000 R=    0.0000 C=    0.0000
 XYZ=    7.0363    5.0078   -1.8255 Q=    0.4100 A=    0.0000 R=    0.0000 C=    0.0000
 XYZ=    3.3502   -2.8015   -9.7915 Q=   -0.8200 A=    0.0000 R=    0.0000 C=    0.0000
 XYZ=    3.4672   -2.8440   -8.7993 Q=    0.4100 A=    0.0000 R=    0.0000 C=    0.0000
 XYZ=    4.2076   -3.0549  -10.2394 Q=    0.4100 A=    0.0000 R=    0.0000 C=    0.0000
 XYZ=    7.6942   -5.6302    1.9288 Q=   -0.8200 A=    0.0000 R=    0.0000 C=    0.0000
 XYZ=    7.0238   -5.1639    2.5059 Q=    0.4100 A=    0.0000 R=    0.0000 C=    0.0000
 XYZ=    7.5050   -5.4278    0.9679 Q=    0.4100 A=    0.0000 R=    0.0000 C=    0.0000
 XYZ=    5.4174   -7.8670   -0.5406 Q=   -0.8200 A=    0.0000 R=    0.0000 C=    0.0000
 XYZ=    6.2677   -8.2073   -0.1391 Q=    0.4100 A=    0.0000 R=    0.0000 C=    0.0000
 XYZ=    5.6267   -7.1528   -1.2086 Q=    0.4100 A=    0.0000 R=    0.0000 C=    0.0000
 XYZ=    9.7178   -2.0482   -2.6505 Q=   -0.8200 A=    0.0000 R=    0.0000 C=    0.0000
 XYZ=    8.8678   -1.7423   -2.2215 Q=    0.4100 A=    0.0000 R=    0.0000 C=    0.0000
 XYZ=   10.3903   -2.2623   -1.9421 Q=    0.4100 A=    0.0000 R=    0.0000 C=    0.0000
 XYZ=    3.5748   -1.7134    7.5100 Q=   -0.8200 A=    0.0000 R=    0.0000 C=    0.0000
 XYZ=    3.6693   -1.6451    8.5032 Q=    0.4100 A=    0.0000 R=    0.0000 C=    0.0000
 XYZ=    4.4817   -1.7235    7.0888 Q=    0.4100 A=    0.0000 R=    0.0000 C=    0.0000
 XYZ=    0.9096   -6.3587    5.5076 Q=   -0.8200 A=    0.0000 R=    0.0000 C=    0.0000
 XYZ=    0.2357   -7.0776    5.6780 Q=    0.4100 A=    0.0000 R=    0.0000 C=    0.0000
 XYZ=    0.7837   -5.6201    6.1699 Q=    0.4100 A=    0.0000 R=    0.0000 C=    0.0000
 XYZ=    7.9376    3.3479   -4.1889 Q=   -0.8200 A=    0.0000 R=    0.0000 C=    0.0000
 XYZ=    7.3850    3.4096   -3.3577 Q=    0.4100 A=    0.0000 R=    0.0000 C=    0.0000
 XYZ=    8.8958    3.2029   -3.9421 Q=    0.4100 A=    0.0000 R=    0.0000 C=    0.0000
 XYZ=   -8.3101    2.3943   -2.7876 Q=   -0.8200 A=    0.0000 R=    0.0000 C=    0.0000
 XYZ=   -7.7612    2.6205   -3.5923 Q=    0.4100 A=    0.0000 R=    0.0000 C=    0.0000
 XYZ=   -9.2795    2.5166   -3.0002 Q=    0.4100 A=    0.0000 R=    0.0000 C=    0.0000
 XYZ=   -8.2736    4.5375   -1.6843 Q=   -0.8200 A=    0.0000 R=    0.0000 C=    0.0000
 XYZ=   -8.6296    5.2654   -2.2704 Q=    0.4100 A=    0.0000 R=    0.0000 C=    0.0000
 XYZ=   -8.1529    3.7042   -2.2238 Q=    0.4100 A=    0.0000 R=    0.0000 C=    0.0000
 XYZ=   -3.5631   -0.2528    8.6118 Q=   -0.8200 A=    0.0000 R=    0.0000 C=    0.0000
 XYZ=   -2.9177   -0.9990    8.4484 Q=    0.4100 A=    0.0000 R=    0.0000 C=    0.0000
 XYZ=   -4.2989   -0.5731    9.2084 Q=    0.4100 A=    0.0000 R=    0.0000 C=    0.0000
 XYZ=   -4.4478    8.7823   -1.5927 Q=   -0.8200 A=    0.0000 R=    0.0000 C=    0.0000
 XYZ=   -4.7058    9.5014   -0.9474 Q=    0.4100 A=    0.0000 R=    0.0000 C=    0.0000
 XYZ=   -3.6212    8.3233   -1.2672 Q=    0.4100 A=    0.0000 R=    0.0000 C=    0.0000
 XYZ=    6.2066    5.1781    2.8991 Q=   -0.8200 A=    0.0000 R=    0.0000 C=    0.0000
 XYZ=    5.3275    4.7500    3.1088 Q=    0.4100 A=    0.0000 R=    0.0000 C=    0.0000
 XYZ=    6.8559    4.4779    2.6021 Q=    0.4100 A=    0.0000 R=    0.0000 C=    0.0000
 XYZ=    8.9165   -2.2827    0.5369 Q=   -0.8200 A=    0.0000 R=    0.0000 C=    0.0000
 XYZ=    8.7672   -3.1487    1.0142 Q=    0.4100 A=    0.0000 R=    0.0000 C=    0.0000
 XYZ=    8.8267   -1.5256    1.1840 Q=    0.4100 A=    0.0000 R=    0.0000 C=    0.0000
 XYZ=    6.3949   -3.0484   -8.3593 Q=   -0.8200 A=    0.0000 R=    0.0000 C=    0.0000
 XYZ=    5.9179   -2.2334   -8.0300 Q=    0.4100 A=    0.0000 R=    0.0000 C=    0.0000
 XYZ=    6.1815   -3.8229   -7.7639 Q=    0.4100 A=    0.0000 R=    0.0000 C=    0.0000
 XYZ=   -2.5712    3.5915    8.2229 Q=   -0.8200 A=    0.0000 R=    0.0000 C=    0.0000
 XYZ=   -1.6253    3.8506    8.0272 Q=    0.4100 A=    0.0000 R=    0.0000 C=    0.0000
 XYZ=   -2.6203    2.6057    8.3836 Q=    0.4100 A=    0.0000 R=    0.0000 C=    0.0000
 XYZ=   -6.1359   -4.6416    3.5373 Q=   -0.8200 A=    0.0000 R=    0.0000 C=    0.0000
 XYZ=   -6.6565   -4.4617    4.3719 Q=    0.4100 A=    0.0000 R=    0.0000 C=    0.0000
 XYZ=   -5.5408   -5.4326    3.6796 Q=    0.4100 A=    0.0000 R=    0.0000 C=    0.0000
 XYZ=   -8.9347   -1.5734    2.5307 Q=   -0.8200 A=    0.0000 R=    0.0000 C=    0.0000
 XYZ=   -8.2471   -2.0893    2.0196 Q=    0.4100 A=    0.0000 R=    0.0000 C=    0.0000
 XYZ=   -8.6278   -0.6281    2.6415 Q=    0.4100 A=    0.0000 R=    0.0000 C=    0.0000
 XYZ=   -7.4565    2.8644    5.4770 Q=   -0.8200 A=    0.0000 R=    0.0000 C=    0.0000
 XYZ=   -7.3228    2.7930    6.4655 Q=    0.4100 A=    0.0000 R=    0.0000 C=    0.0000
 XYZ=   -7.5571    1.9490    5.0873 Q=    0.4100 A=    0.0000 R=    0.0000 C=    0.0000
 XYZ=   -2.3940   -2.0752   -9.5817 Q=   -0.8200 A=    0.0000 R=    0.0000 C=    0.0000
 XYZ=   -2.3247   -2.9550  -10.0520 Q=    0.4100 A=    0.0000 R=    0.0000 C=    0.0000
 XYZ=   -2.7450   -2.2187   -8.6564 Q=    0.4100 A=    0.0000 R=    0.0000 C=    0.0000
 XYZ=   -6.2682   -5.0269   -4.9237 Q=   -0.8200 A=    0.0000 R=    0.0000 C=    0.0000
 XYZ=   -6.5234   -4.6970   -5.8326 Q=    0.4100 A=    0.0000 R=    0.0000 C=    0.0000
 XYZ=   -5.7579   -4.3146   -4.4417 Q=    0.4100 A=    0.0000 R=    0.0000 C=    0.0000
 XYZ=    3.3628   -6.9079   -8.0644 Q=   -0.8200 A=    0.0000 R=    0.0000 C=    0.0000
 XYZ=    4.1044   -6.7497   -8.7165 Q=    0.4100 A=    0.0000 R=    0.0000 C=    0.0000
 XYZ=    3.4950   -6.3260   -7.2619 Q=    0.4100 A=    0.0000 R=    0.0000 C=    0.0000
 XYZ=   -3.8290   -7.0713    2.0917 Q=   -0.8200 A=    0.0000 R=    0.0000 C=    0.0000
 XYZ=   -3.7067   -8.0041    1.7528 Q=    0.4100 A=    0.0000 R=    0.0000 C=    0.0000
 XYZ=   -4.5001   -6.5954    1.5233 Q=    0.4100 A=    0.0000 R=    0.0000 C=    0.0000
 XYZ=   -4.1716    7.2685    4.5288 Q=   -0.8200 A=    0.0000 R=    0.0000 C=    0.0000
 XYZ=   -4.7700    6.5996    4.9699 Q=    0.4100 A=    0.0000 R=    0.0000 C=    0.0000
 XYZ=   -4.6040    8.1699    4.5537 Q=    0.4100 A=    0.0000 R=    0.0000 C=    0.0000
 XYZ=   -3.2860    8.6282    2.6494 Q=   -0.8200 A=    0.0000 R=    0.0000 C=    0.0000
 XYZ=   -3.7432    8.1050    3.3687 Q=    0.4100 A=    0.0000 R=    0.0000 C=    0.0000
 XYZ=   -3.9231    9.2985    2.2687 Q=    0.4100 A=    0.0000 R=    0.0000 C=    0.0000
 XYZ=   -0.9644    8.6739    3.1846 Q=   -0.8200 A=    0.0000 R=    0.0000 C=    0.0000
 XYZ=   -1.9475    8.7960    3.0476 Q=    0.4100 A=    0.0000 R=    0.0000 C=    0.0000
 XYZ=   -0.8075    8.1410    4.0162 Q=    0.4100 A=    0.0000 R=    0.0000 C=    0.0000
 XYZ=   -4.4868   -3.1940    7.8176 Q=   -0.8200 A=    0.0000 R=    0.0000 C=    0.0000
 XYZ=   -3.7045   -2.6272    8.0761 Q=    0.4100 A=    0.0000 R=    0.0000 C=    0.0000
 XYZ=   -4.4643   -4.0492    8.3355 Q=    0.4100 A=    0.0000 R=    0.0000 C=    0.0000
 XYZ=   -1.9200    1.4212    9.1949 Q=   -0.8200 A=    0.0000 R=    0.0000 C=    0.0000
 XYZ=   -2.5600    0.6789    8.9964 Q=    0.4100 A=    0.0000 R=    0.0000 C=    0.0000
 XYZ=   -1.8511    1.5461   10.1847 Q=    0.4100 A=    0.0000 R=    0.0000 C=    0.0000
 XYZ=   -4.8053   -6.5409    4.3842 Q=   -0.8200 A=    0.0000 R=    0.0000 C=    0.0000
 XYZ=   -3.9490   -6.2547    4.8143 Q=    0.4100 A=    0.0000 R=    0.0000 C=    0.0000
 XYZ=   -4.6068   -6.9902    3.5131 Q=    0.4100 A=    0.0000 R=    0.0000 C=    0.0000
 XYZ=    1.3589    0.2350   -9.9312 Q=   -0.8200 A=    0.0000 R=    0.0000 C=    0.0000
 XYZ=    0.9074    1.0743  -10.2343 Q=    0.4100 A=    0.0000 R=    0.0000 C=    0.0000
 XYZ=    0.7035   -0.5202   -9.9465 Q=    0.4100 A=    0.0000 R=    0.0000 C=    0.0000
 XYZ=    5.8217   -5.1355   -7.2987 Q=   -0.8200 A=    0.0000 R=    0.0000 C=    0.0000
 XYZ=    6.4825   -5.6819   -6.7840 Q=    0.4100 A=    0.0000 R=    0.0000 C=    0.0000
 XYZ=    5.6585   -5.5613   -8.1888 Q=    0.4100 A=    0.0000 R=    0.0000 C=    0.0000
 XYZ=   -4.5291    8.4163   -4.0180 Q=   -0.8200 A=    0.0000 R=    0.0000 C=    0.0000
 XYZ=   -4.3890    8.7286   -3.0783 Q=    0.4100 A=    0.0000 R=    0.0000 C=    0.0000
 XYZ=   -4.3732    7.4298   -4.0681 Q=    0.4100 A=    0.0000 R=    0.0000 C=    0.0000
 XYZ=  -10.3511   -0.4375   -0.7090 Q=   -0.8200 A=    0.0000 R=    0.0000 C=    0.0000
 XYZ=  -10.6741    0.5038   -0.8074 Q=    0.4100 A=    0.0000 R=    0.0000 C=    0.0000
 XYZ=   -9.3665   -0.4355   -0.5341 Q=    0.4100 A=    0.0000 R=    0.0000 C=    0.0000
 XYZ=   -7.1163   -5.2746    1.5000 Q=   -0.8200 A=    0.0000 R=    0.0000 C=    0.0000
 XYZ=   -6.5414   -5.9127    0.9877 Q=    0.4100 A=    0.0000 R=    0.0000 C=    0.0000
 XYZ=   -6.6432   -4.9975    2.3363 Q=    0.4100 A=    0.0000 R=    0.0000 C=    0.0000
 XYZ=    9.9114    0.9507    1.3488 Q=   -0.8200 A=    0.0000 R=    0.0000 C=    0.0000
 XYZ=    9.1532    0.3701    1.6454 Q=    0.4100 A=    0.0000 R=    0.0000 C=    0.0000
 XYZ=    9.5497    1.7926    0.9484 Q=    0.4100 A=    0.0000 R=    0.0000 C=    0.0000
 XYZ=   -0.1758   -1.5230   -9.8961 Q=   -0.8200 A=    0.0000 R=    0.0000 C=    0.0000
 XYZ=    0.3046   -2.3815  -10.0760 Q=    0.4100 A=    0.0000 R=    0.0000 C=    0.0000
 XYZ=   -1.1231   -1.7181   -9.6419 Q=    0.4100 A=    0.0000 R=    0.0000 C=    0.0000
 XYZ=   -6.7775    3.1606   -6.9485 Q=   -0.8200 A=    0.0000 R=    0.0000 C=    0.0000
 XYZ=   -6.5923    3.9314   -7.5582 Q=    0.4100 A=    0.0000 R=    0.0000 C=    0.0000
 XYZ=   -6.2406    2.3688   -7.2399 Q=    0.4100 A=    0.0000 R=    0.0000 C=    0.0000
 XYZ=    6.8105   -7.7079    2.6128 Q=   -0.8200 A=    0.0000 R=    0.0000 C=    0.0000
 XYZ=    7.3587   -6.8868    2.4539 Q=    0.4100 A=    0.0000 R=    0.0000 C=    0.0000
 XYZ=    5.8397   -7.4805    2.5359 Q=    0.4100 A=    0.0000 R=    0.0000 C=    0.0000
 XYZ=   -4.5126    5.0025    7.6121 Q=   -0.8200 A=    0.0000 R=    0.0000 C=    0.0000
 XYZ=   -4.6925    5.2514    6.6604 Q=    0.4100 A=    0.0000 R=    0.0000 C=    0.0000
 XYZ=   -3.6727    4.4621    7.6621 Q=    0.4100 A=    0.0000 R=    0.0000 C=    0.0000
 XYZ=    8.7022   -4.3267   -5.9435 Q=   -0.8200 A=    0.0000 R=    0.0000 C=    0.0000
 XYZ=    8.4613   -3.6089   -5.2902 Q=    0.4100 A=    0.0000 R=    0.0000 C=    0.0000
 XYZ=    8.8476   -3.9210   -6.8459 Q=    0.4100 A=    0.0000 R=    0.0000 C=    0.0000
 XYZ=    8.0063    2.4327    4.9052 Q=   -0.8200 A=    0.0000 R=    0.0000 C=    0.0000
 XYZ=    7.5893    1.6608    4.4252 Q=    0.4100 A=    0.0000 R=    0.0000 C=    0.0000
 XYZ=    8.8730    2.1435    5.3117 Q=    0.4100 A=    0.0000 R=    0.0000 C=    0.0000
 XYZ=    0.2796    2.1938  -10.5459 Q=   -0.8200 A=    0.0000 R=    0.0000 C=    0.0000
 XYZ=   -0.1311    2.7510   -9.8242 Q=    0.4100 A=    0.0000 R=    0.0000 C=    0.0000
 XYZ=    1.1393    2.6110  -10.8406 Q=    0.4100 A=    0.0000 R=    0.0000 C=    0.0000
 XYZ=    5.8527   -1.4546    6.8415 Q=   -0.8200 A=    0.0000 R=    0.0000 C=    0.0000
 XYZ=    6.1334   -0.9756    7.6733 Q=    0.4100 A=    0.0000 R=    0.0000 C=    0.0000
 XYZ=    6.3123   -2.3416    6.7965 Q=    0.4100 A=    0.0000 R=    0.0000 C=    0.0000
 XYZ=    9.5334    0.1898   -3.9540 Q=   -0.8200 A=    0.0000 R=    0.0000 C=    0.0000
 XYZ=    9.9500    0.8821   -3.3647 Q=    0.4100 A=    0.0000 R=    0.0000 C=    0.0000
 XYZ=    9.6818   -0.7170   -3.5593 Q=    0.4100 A=    0.0000 R=    0.0000 C=    0.0000
 XYZ=   -1.3524   -9.3830    3.3877 Q=   -0.8200 A=    0.0000 R=    0.0000 C=    0.0000
 XYZ=   -0.6840   -9.8842    2.8381 Q=    0.4100 A=    0.0000 R=    0.0000 C=    0.0000
 XYZ=   -1.3639   -8.4237    3.1053 Q=    0.4100 A=    0.0000 R=    0.0000 C=    0.0000
 XYZ=   -0.1580   -5.2699    9.0909 Q=   -0.8200 A=    0.0000 R=    0.0000 C=    0.0000
 XYZ=    0.1446   -4.7610    8.2850 Q=    0.4100 A=    0.0000 R=    0.0000 C=    0.0000
 XYZ=    0.6304   -5.7051    9.5256 Q=    0.4100 A=    0.0000 R=    0.0000 C=    0.0000
 XYZ=    9.0847    3.0371    0.4950 Q=   -0.8200 A=    0.0000 R=    0.0000 C=    0.0000
 XYZ=    8.3979    3.1870    1.2063 Q=    0.4100 A=    0.0000 R=    0.0000 C=    0.0000
 XYZ=    9.8168    3.7115    0.5914 Q=    0.4100 A=    0.0000 R=    0.0000 C=    0.0000
 XYZ=  -10.0378    3.6329   -0.2730 Q=   -0.8200 A=    0.0000 R=    0.0000 C=    0.0000
 XYZ=   -9.3021    4.0552   -0.8026 Q=    0.4100 A=    0.0000 R=    0.0000 C=    0.0000
 XYZ=   -9.8864    3.8015    0.7010 Q=    0.4100 A=    0.0000 R=    0.0000 C=    0.0000
 XYZ=   -7.3747   -3.8585    5.4333 Q=   -0.8200 A=    0.0000 R=    0.0000 C=    0.0000
 XYZ=   -8.1152   -3.2881    5.0780 Q=    0.4100 A=    0.0000 R=    0.0000 C=    0.0000
 XYZ=   -6.6679   -3.2756    5.8341 Q=    0.4100 A=    0.0000 R=    0.0000 C=    0.0000
 XYZ=   -3.7408    2.0347  -10.4490 Q=   -0.8200 A=    0.0000 R=    0.0000 C=    0.0000
 XYZ=   -3.4492    2.2465   -9.5162 Q=    0.4100 A=    0.0000 R=    0.0000 C=    0.0000
 XYZ=   -3.5780    1.0662  -10.6373 Q=    0.4100 A=    0.0000 R=    0.0000 C=    0.0000
 XYZ=   -5.6560   -6.5708    0.2908 Q=   -0.8200 A=    0.0000 R=    0.0000 C=    0.0000
 XYZ=   -5.7523   -6.1288   -0.6010 Q=    0.4100 A=    0.0000 R=    0.0000 C=    0.0000
 XYZ=   -5.8812   -7.5416    0.2077 Q=    0.4100 A=    0.0000 R=    0.0000 C=    0.0000
 XYZ=    1.9215    2.0866   10.2220 Q=   -0.8200 A=    0.0000 R=    0.0000 C=    0.0000
 XYZ=    2.7992    2.2797    9.7832 Q=    0.4100 A=    0.0000 R=    0.0000 C=    0.0000
 XYZ=    1.2859    1.7137    9.5460 Q=    0.4100 A=    0.0000 R=    0.0000 C=    0.0000
 XYZ=   10.3896    1.5531   -2.2204 Q=   -0.8200 A=    0.0000 R=    0.0000 C=    0.0000
 XYZ=    9.5040    1.9168   -1.9314 Q=    0.4100 A=    0.0000 R=    0.0000 C=    0.0000
 XYZ=   10.8141    1.0647   -1.4581 Q=    0.4100 A=    0.0000 R=    0.0000 C=    0.0000
 XYZ=   -8.6784    5.4910    3.3150 Q=   -0.8200 A=    0.0000 R=    0.0000 C=    0.0000
 XYZ=   -8.8439    5.1607    4.2443 Q=    0.4100 A=    0.0000 R=    0.0000 C=    0.0000
 XYZ=   -8.8689    4.7579    2.6620 Q=    0.4100 A=    0.0000 R=    0.0000 C=    0.0000
 XYZ=    6.7399    6.5322   -1.4207 Q=   -0.8200 A=    0.0000 R=    0.0000 C=    0.0000
 XYZ=    5.9227    6.4794   -1.9946 Q=    0.4100 A=    0.0000 R=    0.0000 C=    0.0000
 XYZ=    6.4742    6.7506   -0.4817 Q=    0.4100 A=    0.0000 R=    0.0000 C=    0.0000
 XYZ=   -3.9801    5.1116   -8.2536 Q=   -0.8200 A=    0.0000 R=    0.0000 C=    0.0000
 XYZ=   -3.5858    5.9230   -8.6850 Q=    0.4100 A=    0.0000 R=    0.0000 C=    0.0000
 XYZ=   -4.9680    5.0986   -8.4085 Q=    0.4100 A=    0.0000 R=    0.0000 C=    0.0000
 XYZ=    5.0487    1.3875    8.0223 Q=   -0.8200 A=    0.0000 R=    0.0000 C=    0.0000
 XYZ=    5.8123    1.7766    7.5068 Q=    0.4100 A=    0.0000 R=    0.0000 C=    0.0000
 XYZ=    4.6224    2.1022    8.5768 Q=    0.4100 A=    0.0000 R=    0.0000 C=    0.0000
 XYZ=    1.2851   -3.3546  -10.7646 Q=   -0.8200 A=    0.0000 R=    0.0000 C=    0.0000
 XYZ=    2.0892   -2.9837  -10.2999 Q=    0.4100 A=    0.0000 R=    0.0000 C=    0.0000
 XYZ=    1.2498   -3.0040  -11.7005 Q=    0.4100 A=    0.0000 R=    0.0000 C=    0.0000
 XYZ=   -1.4056    4.9078  -10.3599 Q=   -0.8200 A=    0.0000 R=    0.0000 C=    0.0000
 XYZ=   -1.9564    4.2811  -10.9112 Q=    0.4100 A=    0.0000 R=    0.0000 C=    0.0000
 XYZ=   -0.9671    4.4011   -9.6175 Q=    0.4100 A=    0.0000 R=    0.0000 C=    0.0000
 XYZ=    9.6610   -4.2397    1.9667 Q=   -0.8200 A=    0.0000 R=    0.0000 C=    0.0000
 XYZ=    8.8915   -4.8209    2.2317 Q=    0.4100 A=    0.0000 R=    0.0000 C=    0.0000
 XYZ=   10.2233   -4.7182    1.2923 Q=    0.4100 A=    0.0000 R=    0.0000 C=    0.0000
 XYZ=   -8.1948   -1.1534    6.3519 Q=   -0.8200 A=    0.0000 R=    0.0000 C=    0.0000
 XYZ=   -8.7583   -1.6339    5.6798 Q=    0.4100 A=    0.0000 R=    0.0000 C=    0.0000
 XYZ=   -7.2812   -1.5597    6.3723 Q=    0.4100 A=    0.0000 R=    0.0000 C=    0.0000
 XYZ=   -3.2546    8.6532   -5.9038 Q=   -0.8200 A=    0.0000 R=    0.0000 C=    0.0000
 XYZ=   -3.8576    8.6431   -5.1061 Q=    0.4100 A=    0.0000 R=    0.0000 C=    0.0000
 XYZ=   -3.0862    7.7150   -6.2062 Q=    0.4100 A=    0.0000 R=    0.0000 C=    0.0000
 XYZ=    0.0577   10.7156    0.2486 Q=   -0.8200 A=    0.0000 R=    0.0000 C=    0.0000
 XYZ=    0.8765   11.2399    0.0147 Q=    0.4100 A=    0.0000 R=    0.0000 C=    0.0000
 XYZ=    0.1121    9.8087   -0.1692 Q=    0.4100 A=    0.0000 R=    0.0000 C=    0.0000
 XYZ=    2.8865   -0.8863  -11.1632 Q=   -0.8200 A=    0.0000 R=    0.0000 C=    0.0000
 XYZ=    2.2703   -0.2823  -10.6577 Q=    0.4100 A=    0.0000 R=    0.0000 C=    0.0000
 XYZ=    3.1338   -1.6666  -10.5886 Q=    0.4100 A=    0.0000 R=    0.0000 C=    0.0000
 XYZ=    1.0565   -6.7030   -8.7991 Q=   -0.8200 A=    0.0000 R=    0.0000 C=    0.0000
 XYZ=    0.6307   -7.2123   -8.0512 Q=    0.4100 A=    0.0000 R=    0.0000 C=    0.0000
 XYZ=    2.0508   -6.7272   -8.6949 Q=    0.4100 A=    0.0000 R=    0.0000 C=    0.0000
 XYZ=   -0.0493   -5.0428   -9.8998 Q=   -0.8200 A=    0.0000 R=    0.0000 C=    0.0000
 XYZ=    0.6331   -4.4106  -10.2669 Q=    0.4100 A=    0.0000 R=    0.0000 C=    0.0000
 XYZ=    0.3952   -5.6903   -9.2807 Q=    0.4100 A=    0.0000 R=    0.0000 C=    0.0000
 XYZ=    7.5388   -6.9909   -4.0535 Q=   -0.8200 A=    0.0000 R=    0.0000 C=    0.0000
 XYZ=    7.5458   -6.6146   -4.9800 Q=    0.4100 A=    0.0000 R=    0.0000 C=    0.0000
 XYZ=    8.1895   -7.7481   -3.9964 Q=    0.4100 A=    0.0000 R=    0.0000 C=    0.0000
 XYZ=   11.0065   -2.2259   -0.5986 Q=   -0.8200 A=    0.0000 R=    0.0000 C=    0.0000
 XYZ=   11.8171   -2.3672   -0.0303 Q=    0.4100 A=    0.0000 R=    0.0000 C=    0.0000
 XYZ=   10.1842   -2.3489   -0.0429 Q=    0.4100 A=    0.0000 R=    0.0000 C=    0.0000
 XYZ=    5.1655    4.5883    6.7793 Q=   -0.8200 A=    0.0000 R=    0.0000 C=    0.0000
 XYZ=    5.7720    5.3662    6.6148 Q=    0.4100 A=    0.0000 R=    0.0000 C=    0.0000
 XYZ=    5.7118    3.7817    7.0048 Q=    0.4100 A=    0.0000 R=    0.0000 C=    0.0000
 XYZ=   -0.9472   -7.8893    5.5233 Q=   -0.8200 A=    0.0000 R=    0.0000 C=    0.0000
 XYZ=   -1.6870   -7.8462    6.1947 Q=    0.4100 A=    0.0000 R=    0.0000 C=    0.0000
 XYZ=   -1.1970   -8.5243    4.7923 Q=    0.4100 A=    0.0000 R=    0.0000 C=    0.0000
 XYZ=    6.8474    5.4580   -5.1425 Q=   -0.8200 A=    0.0000 R=    0.0000 C=    0.0000
 XYZ=    7.5607    5.0643   -4.5626 Q=    0.4100 A=    0.0000 R=    0.0000 C=    0.0000
 XYZ=    6.9478    5.1123   -6.0755 Q=    0.4100 A=    0.0000 R=    0.0000 C=    0.0000
 XYZ=   -0.7608    9.0683    6.4255 Q=   -0.8200 A=    0.0000 R=    0.0000 C=    0.0000
 XYZ=   -0.7165    8.2834    5.8073 Q=    0.4100 A=    0.0000 R=    0.0000 C=    0.0000
 XYZ=    0.0825    9.6004    6.3495 Q=    0.4100 A=    0.0000 R=    0.0000 C=    0.0000
 XYZ=  -10.8542    0.4484    3.3170 Q=   -0.8200 A=    0.0000 R=    0.0000 C=    0.0000
 XYZ=   -9.8645    0.3827    3.4444 Q=    0.4100 A=    0.0000 R=    0.0000 C=    0.0000
 XYZ=  -11.1386   -0.1750    2.5886 Q=    0.4100 A=    0.0000 R=    0.0000 C=    0.0000
 XYZ=    7.5919   -6.3579   -6.2870 Q=   -0.8200 A=    0.0000 R=    0.0000 C=    0.0000
 XYZ=    8.0651   -5.4853   -6.1661 Q=    0.4100 A=    0.0000 R=    0.0000 C=    0.0000
 XYZ=    8.2300   -7.0352   -6.6533 Q=    0.4100 A=    0.0000 R=    0.0000 C=    0.0000
 XYZ=    6.0292    6.8080    1.1500 Q=   -0.8200 A=    0.0000 R=    0.0000 C=    0.0000
 XYZ=    6.5726    7.6449    1.2164 Q=    0.4100 A=    0.0000 R=    0.0000 C=    0.0000
 XYZ=    6.2502    6.2055    1.9170 Q=    0.4100 A=    0.0000 R=    0.0000 C=    0.0000
 XYZ=    6.6512    2.4682    6.7975 Q=   -0.8200 A=    0.0000 R=    0.0000 C=    0.0000
 XYZ=    7.1367    2.4837    5.9233 Q=    0.4100 A=    0.0000 R=    0.0000 C=    0.0000
 XYZ=    7.2865    2.6956    7.5356 Q=    0.4100 A=    0.0000 R=    0.0000 C=    0.0000
 XYZ=   -3.2613   -0.1639  -10.8903 Q=   -0.8200 A=    0.0000 R=    0.0000 C=    0.0000
 XYZ=   -2.7853   -0.9106  -10.4255 Q=    0.4100 A=    0.0000 R=    0.0000 C=    0.0000
 XYZ=   -4.2413   -0.3607  -10.9197 Q=    0.4100 A=    0.0000 R=    0.0000 C=    0.0000
 XYZ=   -0.1454   10.8218    2.7686 Q=   -0.8200 A=    0.0000 R=    0.0000 C=    0.0000
 XYZ=   -0.4182    9.8769    2.9495 Q=    0.4100 A=    0.0000 R=    0.0000 C=    0.0000
 XYZ=    0.0232   10.9384    1.7898 Q=    0.4100 A=    0.0000 R=    0.0000 C=    0.0000
 XYZ=   -9.2181   -2.5884    4.7287 Q=   -0.8200 A=    0.0000 R=    0.0000 C=    0.0000
 XYZ=   -9.1885   -2.1213    3.8450 Q=    0.4100 A=    0.0000 R=    0.0000 C=    0.0000
 XYZ=   -9.7825   -3.4103    4.6524 Q=    0.4100 A=    0.0000 R=    0.0000 C=    0.0000
 XYZ=   -5.2362   -7.1322   -5.3764 Q=   -0.8200 A=    0.0000 R=    0.0000 C=    0.0000
 XYZ=   -5.4574   -6.1690   -5.2239 Q=    0.4100 A=    0.0000 R=    0.0000 C=    0.0000
 XYZ=   -5.5828   -7.6785   -4.6138 Q=    0.4100 A=    0.0000 R=    0.0000 C=    0.0000
 XYZ=    7.2217   -8.6532    0.5540 Q=   -0.8200 A=    0.0000 R=    0.0000 C=    0.0000
 XYZ=    7.0075   -8.2627    1.4493 Q=    0.4100 A=    0.0000 R=    0.0000 C=    0.0000
 XYZ=    7.8137   -9.4505    0.6711 Q=    0.4100 A=    0.0000 R=    0.0000 C=    0.0000
 XYZ=    4.0104    5.1467    8.7927 Q=   -0.8200 A=    0.0000 R=    0.0000 C=    0.0000
 XYZ=    4.8333    5.5709    9.1707 Q=    0.4100 A=    0.0000 R=    0.0000 C=    0.0000
 XYZ=    4.1748    4.8907    7.8401 Q=    0.4100 A=    0.0000 R=    0.0000 C=    0.0000
 XYZ=   -6.7594   -6.0942   -2.5985 Q=   -0.8200 A=    0.0000 R=    0.0000 C=    0.0000
 XYZ=   -7.6808   -6.2114   -2.2277 Q=    0.4100 A=    0.0000 R=    0.0000 C=    0.0000
 XYZ=   -6.8188   -5.7593   -3.5389 Q=    0.4100 A=    0.0000 R=    0.0000 C=    0.0000
 XYZ=    8.7732   -3.1602   -8.2533 Q=   -0.8200 A=    0.0000 R=    0.0000 C=    0.0000
 XYZ=    7.7840   -3.1460   -8.3994 Q=    0.4100 A=    0.0000 R=    0.0000 C=    0.0000
 XYZ=    9.2341   -2.7833   -9.0567 Q=    0.4100 A=    0.0000 R=    0.0000 C=    0.0000
 XYZ=    9.5466   -5.7765   -1.5587 Q=   -0.8200 A=    0.0000 R=    0.0000 C=    0.0000
 XYZ=    9.4987   -5.6160   -2.5446 Q=    0.4100 A=    0.0000 R=    0.0000 C=    0.0000
 XYZ=    9.2698   -6.7168   -1.3603 Q=    0.4100 A=    0.0000 R=    0.0000 C=    0.0000
 XYZ=  -10.9197   -1.3728    1.6334 Q=   -0.8200 A=    0.0000 R=    0.0000 C=    0.0000
 XYZ=  -10.6250   -1.0806    0.7235 Q=    0.4100 A=    0.0000 R=    0.0000 C=    0.0000
 XYZ=  -10.1176   -1.5888    2.1901 Q=    0.4100 A=    0.0000 R=    0.0000 C=    0.0000
 XYZ=   -3.2049    4.6313   10.1752 Q=   -0.8200 A=    0.0000 R=    0.0000 C=    0.0000
 XYZ=   -3.4020    5.5994   10.0200 Q=    0.4100 A=    0.0000 R=    0.0000 C=    0.0000
 XYZ=   -2.9280    4.2053    9.3139 Q=    0.4100 A=    0.0000 R=    0.0000 C=    0.0000
 XYZ=    6.2722   -0.3651    8.8358 Q=   -0.8200 A=    0.0000 R=    0.0000 C=    0.0000
 XYZ=    5.6521    0.3646    8.5476 Q=    0.4100 A=    0.0000 R=    0.0000 C=    0.0000
 XYZ=    7.0571    0.0328    9.3108 Q=    0.4100 A=    0.0000 R=    0.0000 C=    0.0000
 XYZ=   -0.2363   -8.6357   -7.2052 Q=   -0.8200 A=    0.0000 R=    0.0000 C=    0.0000
 XYZ=   -0.6298   -9.4780   -6.8368 Q=    0.4100 A=    0.0000 R=    0.0000 C=    0.0000
 XYZ=    0.7588   -8.6630   -7.1094 Q=    0.4100 A=    0.0000 R=    0.0000 C=    0.0000
 XYZ=    5.6405   -3.7088  -10.4828 Q=   -0.8200 A=    0.0000 R=    0.0000 C=    0.0000
 XYZ=    6.2672   -3.5937  -11.2536 Q=    0.4100 A=    0.0000 R=    0.0000 C=    0.0000
 XYZ=    6.1102   -3.4702   -9.6328 Q=    0.4100 A=    0.0000 R=    0.0000 C=    0.0000
 XYZ=    7.0497    4.3599   -7.2603 Q=   -0.8200 A=    0.0000 R=    0.0000 C=    0.0000
 XYZ=    8.0134    4.6261   -7.2391 Q=    0.4100 A=    0.0000 R=    0.0000 C=    0.0000
 XYZ=    6.5763    4.8786   -7.9724 Q=    0.4100 A=    0.0000 R=    0.0000 C=    0.0000
 XYZ=   -2.1637   -7.3801   -8.0916 Q=   -0.8200 A=    0.0000 R=    0.0000 C=    0.0000
 XYZ=   -1.2991   -7.8753   -8.0064 Q=    0.4100 A=    0.0000 R=    0.0000 C=    0.0000
 XYZ=   -2.6786   -7.4592   -7.2380 Q=    0.4100 A=    0.0000 R=    0.0000 C=    0.0000
 XYZ=    2.1238   -8.8785   -7.6460 Q=   -0.8200 A=    0.0000 R=    0.0000 C=    0.0000
 XYZ=    2.7298   -8.1230   -7.8951 Q=    0.4100 A=    0.0000 R=    0.0000 C=    0.0000
 XYZ=    2.5857   -9.7479   -7.8211 Q=    0.4100 A=    0.0000 R=    0.0000 C=    0.0000
 XYZ=  -11.1544    1.7401   -1.0635 Q=   -0.8200 A=    0.0000 R=    0.0000 C=    0.0000
 XYZ=  -12.1194    1.9194   -1.2546 Q=    0.4100 A=    0.0000 R=    0.0000 C=    0.0000
 XYZ=  -10.7471    2.5413   -0.6249 Q=    0.4100 A=    0.0000 R=    0.0000 C=    0.0000
 XYZ=   -7.6375    8.3823    0.4026 Q=   -0.8200 A=    0.0000 R=    0.0000 C=    0.0000
 XYZ=   -8.3157    8.9805   -0.0245 Q=    0.4100 A=    0.0000 R=    0.0000 C=    0.0000
 XYZ=   -7.8795    8.2358    1.3618 Q=    0.4100 A=    0.0000 R=    0.0000 C=    0.0000
 XYZ=   -1.3186   -3.5400   10.4548 Q=   -0.8200 A=    0.0000 R=    0.0000 C=    0.0000
 XYZ=   -0.8715   -4.1976    9.8484 Q=    0.4100 A=    0.0000 R=    0.0000 C=    0.0000
 XYZ=   -2.1241   -3.9632   10.8695 Q=    0.4100 A=    0.0000 R=    0.0000 C=    0.0000
 XYZ=   -2.3844   -4.3134  -10.5412 Q=   -0.8200 A=    0.0000 R=    0.0000 C=    0.0000
 XYZ=   -1.6535   -4.7320  -10.0022 Q=    0.4100 A=    0.0000 R=    0.0000 C=    0.0000
 XYZ=   -2.1064   -4.2674  -11.5007 Q=    0.4100 A=    0.0000 R=    0.0000 C=    0.0000
 XYZ=   -1.2075   -0.1081  -11.9802 Q=   -0.8200 A=    0.0000 R=    0.0000 C=    0.0000
 XYZ=   -0.6166   -0.3833  -11.2218 Q=    0.4100 A=    0.0000 R=    0.0000 C=    0.0000
 XYZ=   -2.1495   -0.0243  -11.6553 Q=    0.4100 A=    0.0000 R=    0.0000 C=    0.0000
 XYZ=   -8.9928    3.3736   -6.9392 Q=   -0.8200 A=    0.0000 R=    0.0000 C=    0.0000
 XYZ=   -9.1560    4.1212   -7.5830 Q=    0.4100 A=    0.0000 R=    0.0000 C=    0.0000
 XYZ=   -8.0084    3.2272   -6.8409 Q=    0.4100 A=    0.0000 R=    0.0000 C=    0.0000
 XYZ=    0.7551    4.2692   10.3208 Q=   -0.8200 A=    0.0000 R=    0.0000 C=    0.0000
 XYZ=   -0.1388    4.3102   10.7673 Q=    0.4100 A=    0.0000 R=    0.0000 C=    0.0000
 XYZ=    1.0412    3.3148   10.2348 Q=    0.4100 A=    0.0000 R=    0.0000 C=    0.0000
 XYZ=    4.0515    2.8883    9.3723 Q=   -0.8200 A=    0.0000 R=    0.0000 C=    0.0000
 XYZ=    4.6393    2.7592   10.1710 Q=    0.4100 A=    0.0000 R=    0.0000 C=    0.0000
 XYZ=    4.0594    3.8519    9.1049 Q=    0.4100 A=    0.0000 R=    0.0000 C=    0.0000
 XYZ=   -9.0052    4.9273    5.5319 Q=   -0.8200 A=    0.0000 R=    0.0000 C=    0.0000
 XYZ=   -8.7210    4.0168    5.8326 Q=    0.4100 A=    0.0000 R=    0.0000 C=    0.0000
 XYZ=   -8.5456    5.6203    6.0874 Q=    0.4100 A=    0.0000 R=    0.0000 C=    0.0000
 XYZ=   -8.3376    8.0163    3.1241 Q=   -0.8200 A=    0.0000 R=    0.0000 C=    0.0000
 XYZ=   -8.5549    7.0448    3.0283 Q=    0.4100 A=    0.0000 R=    0.0000 C=    0.0000
 XYZ=   -8.0466    8.2017    4.0627 Q=    0.4100 A=    0.0000 R=    0.0000 C=    0.0000
 XYZ=   -2.8475   -7.4098    6.9080 Q=   -0.8200 A=    0.0000 R=    0.0000 C=    0.0000
 XYZ=   -2.4273   -7.1416    7.7749 Q=    0.4100 A=    0.0000 R=    0.0000 C=    0.0000
 XYZ=   -3.7673   -7.7632    7.0787 Q=    0.4100 A=    0.0000 R=    0.0000 C=    0.0000
 XYZ=    8.9044   -7.9785   -1.4265 Q=   -0.8200 A=    0.0000 R=    0.0000 C=    0.0000
 XYZ=    7.9629   -8.1242   -1.1224 Q=    0.4100 A=    0.0000 R=    0.0000 C=    0.0000
 XYZ=    9.5269   -8.5053   -0.8477 Q=    0.4100 A=    0.0000 R=    0.0000 C=    0.0000
 XYZ=   -3.3249   -8.2934   -6.1876 Q=   -0.8200 A=    0.0000 R=    0.0000 C=    0.0000
 XYZ=   -3.6569   -8.7226   -7.0276 Q=    0.4100 A=    0.0000 R=    0.0000 C=    0.0000
 XYZ=   -4.0877   -7.8518   -5.7150 Q=    0.4100 A=    0.0000 R=    0.0000 C=    0.0000
 XYZ=   -6.7381   -4.3239   -7.0851 Q=   -0.8200 A=    0.0000 R=    0.0000 C=    0.0000
 XYZ=   -6.4526   -4.9984   -7.7661 Q=    0.4100 A=    0.0000 R=    0.0000 C=    0.0000
 XYZ=   -7.2672   -3.6026   -7.5320 Q=    0.4100 A=    0.0000 R=    0.0000 C=    0.0000
 XYZ=   -6.1293   10.1038    0.1259 Q=   -0.8200 A=    0.0000 R=    0.0000 C=    0.0000
 XYZ=   -6.5856   10.7758   -0.4575 Q=    0.4100 A=    0.0000 R=    0.0000 C=    0.0000
 XYZ=   -6.7458    9.3344    0.2933 Q=    0.4100 A=    0.0000 R=    0.0000 C=    0.0000
 XYZ=   -7.2701    2.4398    7.9272 Q=   -0.8200 A=    0.0000 R=    0.0000 C=    0.0000
 XYZ=   -7.2929    1.8478    8.7328 Q=    0.4100 A=    0.0000 R=    0.0000 C=    0.0000
 XYZ=   -6.9780    3.3576    8.1963 Q=    0.4100 A=    0.0000 R=    0.0000 C=    0.0000
 XYZ=    7.4796    6.4540    4.3710 Q=   -0.8200 A=    0.0000 R=    0.0000 C=    0.0000
 XYZ=    8.2287    5.9012    4.7360 Q=    0.4100 A=    0.0000 R=    0.0000 C=    0.0000
 XYZ=    6.9772    5.9247    3.6873 Q=    0.4100 A=    0.0000 R=    0.0000 C=    0.0000
 XYZ=   -6.4479    4.5027    8.8489 Q=   -0.8200 A=    0.0000 R=    0.0000 C=    0.0000
 XYZ=   -6.9804    5.3468    8.7864 Q=    0.4100 A=    0.0000 R=    0.0000 C=    0.0000
 XYZ=   -5.5704    4.6270    8.3856 Q=    0.4100 A=    0.0000 R=    0.0000 C=    0.0000
 XYZ=   -4.4818   10.4254    1.7843 Q=   -0.8200 A=    0.0000 R=    0.0000 C=    0.0000
 XYZ=   -4.9740   10.9455    2.4824 Q=    0.4100 A=    0.0000 R=    0.0000 C=    0.0000
 XYZ=   -5.1050   10.2002    1.0353 Q=    0.4100 A=    0.0000 R=    0.0000 C=    0.0000
 XYZ=   -6.8582   -0.7324   -8.8967 Q=   -0.8200 A=    0.0000 R=    0.0000 C=    0.0000
 XYZ=   -7.3602   -1.5386   -8.5836 Q=    0.4100 A=    0.0000 R=    0.0000 C=    0.0000
 XYZ=   -6.2381   -0.9925   -9.6368 Q=    0.4100 A=    0.0000 R=    0.0000 C=    0.0000
 XYZ=   -6.4489   -7.6017    5.6600 Q=   -0.8200 A=    0.0000 R=    0.0000 C=    0.0000
 XYZ=   -5.7927   -7.1401    5.0631 Q=    0.4100 A=    0.0000 R=    0.0000 C=    0.0000
 XYZ=   -7.2242   -6.9949    5.8352 Q=    0.4100 A=    0.0000 R=    0.0000 C=    0.0000
 XYZ=  -10.5880    2.2031   -3.2889 Q=   -0.8200 A=    0.0000 R=    0.0000 C=    0.0000
 XYZ=  -10.8081    1.9696   -2.3417 Q=    0.4100 A=    0.0000 R=    0.0000 C=    0.0000
 XYZ=  -11.2654    1.7926   -3.8994 Q=    0.4100 A=    0.0000 R=    0.0000 C=    0.0000
 XYZ=   11.0584   -3.1137    3.5841 Q=   -0.8200 A=    0.0000 R=    0.0000 C=    0.0000
 XYZ=   10.3826   -3.3093    2.8734 Q=    0.4100 A=    0.0000 R=    0.0000 C=    0.0000
 XYZ=   10.5923   -2.9732    4.4576 Q=    0.4100 A=    0.0000 R=    0.0000 C=    0.0000
 XYZ=    4.6184   -1.7308    9.6485 Q=   -0.8200 A=    0.0000 R=    0.0000 C=    0.0000
 XYZ=    5.3339   -1.1232    9.3036 Q=    0.4100 A=    0.0000 R=    0.0000 C=    0.0000
 XYZ=    5.0245   -2.6036    9.9194 Q=    0.4100 A=    0.0000 R=    0.0000 C=    0.0000
 XYZ=   11.4301    0.3634   -0.3762 Q=   -0.8200 A=    0.0000 R=    0.0000 C=    0.0000
 XYZ=   11.1913   -0.5748   -0.6267 Q=    0.4100 A=    0.0000 R=    0.0000 C=    0.0000
 XYZ=   10.9615    0.6114    0.4718 Q=    0.4100 A=    0.0000 R=    0.0000 C=    0.0000
 XYZ=    5.1730   -6.0390   -9.4611 Q=   -0.8200 A=    0.0000 R=    0.0000 C=    0.0000
 XYZ=    5.7790   -6.7169   -9.8774 Q=    0.4100 A=    0.0000 R=    0.0000 C=    0.0000
 XYZ=    5.2519   -5.1733   -9.9555 Q=    0.4100 A=    0.0000 R=    0.0000 C=    0.0000
 XYZ=   10.5082    3.5540   -3.5627 Q=   -0.8200 A=    0.0000 R=    0.0000 C=    0.0000
 XYZ=   10.7491    4.1470   -2.7943 Q=    0.4100 A=    0.0000 R=    0.0000 C=    0.0000
 XYZ=   10.5506    2.5981   -3.2719 Q=    0.4100 A=    0.0000 R=    0.0000 C=    0.0000
 XYZ=   -5.9047    2.8548  -10.1785 Q=   -0.8200 A=    0.0000 R=    0.0000 C=    0.0000
 XYZ=   -6.5320    2.0851  -10.2972 Q=    0.4100 A=    0.0000 R=    0.0000 C=    0.0000
 XYZ=   -4.9658    2.5462  -10.3316 Q=    0.4100 A=    0.0000 R=    0.0000 C=    0.0000
 XYZ=   -5.1687    9.3347    4.5588 Q=   -0.8200 A=    0.0000 R=    0.0000 C=    0.0000
 XYZ=   -4.5857    9.7430    5.2613 Q=    0.4100 A=    0.0000 R=    0.0000 C=    0.0000
 XYZ=   -5.5224   10.0534    3.9601 Q=    0.4100 A=    0.0000 R=    0.0000 C=    0.0000
 XYZ=   -6.3065    4.6216   -8.6620 Q=   -0.8200 A=    0.0000 R=    0.0000 C=    0.0000
 XYZ=   -6.9724    5.2711   -9.0292 Q=    0.4100 A=    0.0000 R=    0.0000 C=    0.0000
 XYZ=   -6.0799    3.9449   -9.3625 Q=    0.4100 A=    0.0000 R=    0.0000 C=    0.0000
 XYZ=   -1.9018   -6.7214    8.9552 Q=   -0.8200 A=    0.0000 R=    0.0000 C=    0.0000
 XYZ=   -1.0560   -6.1972    9.0539 Q=    0.4100 A=    0.0000 R=    0.0000 C=    0.0000
 XYZ=   -2.6867   -6.1116    9.0656 Q=    0.4100 A=    0.0000 R=    0.0000 C=    0.0000
 XYZ=   -8.9048    0.6301    7.7689 Q=   -0.8200 A=    0.0000 R=    0.0000 C=    0.0000
 XYZ=   -8.6714   -0.2749    7.4129 Q=    0.4100 A=    0.0000 R=    0.0000 C=    0.0000
 XYZ=   -8.1766    1.2762    7.5400 Q=    0.4100 A=    0.0000 R=    0.0000 C=    0.0000
 XYZ=   -3.8785   -9.4796    1.2226 Q=   -0.8200 A=    0.0000 R=    0.0000 C=    0.0000
 XYZ=   -4.7107   -9.1915    0.7489 Q=    0.4100 A=    0.0000 R=    0.0000 C=    0.0000
 XYZ=   -3.2545   -9.9084    0.5692 Q=    0.4100 A=    0.0000 R=    0.0000 C=    0.0000
 XYZ=   -1.6792  -10.0925   -5.8385 Q=   -0.8200 A=    0.0000 R=    0.0000 C=    0.0000
 XYZ=   -2.3144   -9.3468   -5.6371 Q=    0.4100 A=    0.0000 R=    0.0000 C=    0.0000
 XYZ=   -2.0346  -10.6370   -6.5982 Q=    0.4100 A=    0.0000 R=    0.0000 C=    0.0000
 XYZ=   -2.4281    3.4111  -11.7444 Q=   -0.8200 A=    0.0000 R=    0.0000 C=    0.0000
 XYZ=   -3.0038    2.8228  -11.1764 Q=    0.4100 A=    0.0000 R=    0.0000 C=    0.0000
 XYZ=   -1.7835    2.8478  -12.2614 Q=    0.4100 A=    0.0000 R=    0.0000 C=    0.0000
 XYZ=   10.9812   -5.3275    0.4948 Q=   -0.8200 A=    0.0000 R=    0.0000 C=    0.0000
 XYZ=   10.4023   -5.3391   -0.3205 Q=    0.4100 A=    0.0000 R=    0.0000 C=    0.0000
 XYZ=   11.2856   -6.2576    0.7007 Q=    0.4100 A=    0.0000 R=    0.0000 C=    0.0000
 XYZ=   -4.0997    6.6451    9.3650 Q=   -0.8200 A=    0.0000 R=    0.0000 C=    0.0000
 XYZ=   -4.3323    6.1482    8.5289 Q=    0.4100 A=    0.0000 R=    0.0000 C=    0.0000
 XYZ=   -4.9342    7.0067    9.7808 Q=    0.4100 A=    0.0000 R=    0.0000 C=    0.0000
 XYZ=   -8.8945   -6.8498    1.9558 Q=   -0.8200 A=    0.0000 R=    0.0000 C=    0.0000
 XYZ=   -9.6431   -6.9405    1.2989 Q=    0.4100 A=    0.0000 R=    0.0000 C=    0.0000
 XYZ=   -8.2846   -6.1121    1.6662 Q=    0.4100 A=    0.0000 R=    0.0000 C=    0.0000
 XYZ=   -2.2819  -10.6274   -0.1504 Q=   -0.8200 A=    0.0000 R=    0.0000 C=    0.0000
 XYZ=   -1.6176  -11.3017    0.1721 Q=    0.4100 A=    0.0000 R=    0.0000 C=    0.0000
 XYZ=   -2.9427  -11.0730   -0.7545 Q=    0.4100 A=    0.0000 R=    0.0000 C=    0.0000
 XYZ=    8.9395    4.6906    5.3306 Q=   -0.8200 A=    0.0000 R=    0.0000 C=    0.0000
 XYZ=    8.5633    3.8438    4.9544 Q=    0.4100 A=    0.0000 R=    0.0000 C=    0.0000
 XYZ=    8.8777    4.6684    6.3285 Q=    0.4100 A=    0.0000 R=    0.0000 C=    0.0000
 XYZ=   -2.9900    6.7116   -9.8577 Q=   -0.8200 A=    0.0000 R=    0.0000 C=    0.0000
 XYZ=   -2.4939    7.5576   -9.6624 Q=    0.4100 A=    0.0000 R=    0.0000 C=    0.0000
 XYZ=   -2.3573    6.0326  -10.2300 Q=    0.4100 A=    0.0000 R=    0.0000 C=    0.0000
 XYZ=  -11.1183    2.7165    3.3094 Q=   -0.8200 A=    0.0000 R=    0.0000 C=    0.0000
 XYZ=  -11.7717    2.9082    2.5769 Q=    0.4100 A=    0.0000 R=    0.0000 C=    0.0000
 XYZ=  -11.1019    1.7335    3.4924 Q=    0.4100 A=    0.0000 R=    0.0000 C=    0.0000
 XYZ=    9.1246    6.5995   -1.8930 Q=   -0.8200 A=    0.0000 R=    0.0000 C=    0.0000
 XYZ=    9.3820    7.1044   -2.7169 Q=    0.4100 A=    0.0000 R=    0.0000 C=    0.0000
 XYZ=    8.1479    6.7233   -1.7178 Q=    0.4100 A=    0.0000 R=    0.0000 C=    0.0000
 XYZ=   -0.8189    2.0863  -12.6890 Q=   -0.8200 A=    0.0000 R=    0.0000 C=    0.0000
 XYZ=   -0.2598    2.2655  -11.8794 Q=    0.4100 A=    0.0000 R=    0.0000 C=    0.0000
 XYZ=   -1.0730    1.1194  -12.7111 Q=    0.4100 A=    0.0000 R=    0.0000 C=    0.0000
 XYZ=   -6.2278   -8.4559   -3.2632 Q=   -0.8200 A=    0.0000 R=    0.0000 C=    0.0000
 XYZ=   -6.3470   -7.6034   -2.7542 Q=    0.4100 A=    0.0000 R=    0.0000 C=    0.0000
 XYZ=   -7.0966   -8.9501   -3.2936 Q=    0.4100 A=    0.0000 R=    0.0000 C=    0.0000
 XYZ=  -10.2690    4.0441   -5.1055 Q=   -0.8200 A=    0.0000 R=    0.0000 C=    0.0000
 XYZ=   -9.6517    3.8327   -5.8633 Q=    0.4100 A=    0.0000 R=    0.0000 C=    0.0000
 XYZ=  -10.2859    3.2761   -4.4652 Q=    0.4100 A=    0.0000 R=    0.0000 C=    0.0000
 XYZ=   -8.1616   -6.1468    6.0188 Q=   -0.8200 A=    0.0000 R=    0.0000 C=    0.0000
 XYZ=   -8.8118   -6.3358    5.2829 Q=    0.4100 A=    0.0000 R=    0.0000 C=    0.0000
 XYZ=   -7.8833   -5.1871    5.9793 Q=    0.4100 A=    0.0000 R=    0.0000 C=    0.0000
 XYZ=   11.8158    1.1015    2.8843 Q=   -0.8200 A=    0.0000 R=    0.0000 C=    0.0000
 XYZ=   12.1352    0.1707    3.0621 Q=    0.4100 A=    0.0000 R=    0.0000 C=    0.0000
 XYZ=   11.1119    1.0824    2.1742 Q=    0.4100 A=    0.0000 R=    0.0000 C=    0.0000
 XYZ=    0.9165    1.3861   12.2368 Q=   -0.8200 A=    0.0000 R=    0.0000 C=    0.0000
 XYZ=    1.4880    1.5190   11.4270 Q=    0.4100 A=    0.0000 R=    0.0000 C=    0.0000
 XYZ=    1.1339    0.5051   12.6571 Q=    0.4100 A=    0.0000 R=    0.0000 C=    0.0000
 XYZ=   -3.9973   -5.4369    9.3372 Q=   -0.8200 A=    0.0000 R=    0.0000 C=    0.0000
 XYZ=   -4.5815   -6.2335    9.4930 Q=    0.4100 A=    0.0000 R=    0.0000 C=    0.0000
 XYZ=   -3.6693   -5.0874   10.2148 Q=    0.4100 A=    0.0000 R=    0.0000 C=    0.0000
 XYZ=   -5.1116   10.5500   -4.7604 Q=   -0.8200 A=    0.0000 R=    0.0000 C=    0.0000
 XYZ=   -5.1094    9.5801   -4.5168 Q=    0.4100 A=    0.0000 R=    0.0000 C=    0.0000
 XYZ=   -4.4723   10.7059   -5.5135 Q=    0.4100 A=    0.0000 R=    0.0000 C=    0.0000
 XYZ=    1.4908   -2.2319  -12.7680 Q=   -0.8200 A=    0.0000 R=    0.0000 C=    0.0000
 XYZ=    2.1450   -1.7001  -12.2302 Q=    0.4100 A=    0.0000 R=    0.0000 C=    0.0000
 XYZ=    1.8634   -2.3925  -13.6820 Q=    0.4100 A=    0.0000 R=    0.0000 C=    0.0000
 XYZ=   -7.4186    8.7131    5.3306 Q=   -0.8200 A=    0.0000 R=    0.0000 C=    0.0000
 XYZ=   -7.7884    9.4621    5.8804 Q=    0.4100 A=    0.0000 R=    0.0000 C=    0.0000
 XYZ=   -6.5088    8.9616    4.9980 Q=    0.4100 A=    0.0000 R=    0.0000 C=    0.0000
 XYZ=   -3.1295   12.2406    1.1243 Q=   -0.8200 A=    0.0000 R=    0.0000 C=    0.0000
 XYZ=   -3.5733   11.3490    1.2139 Q=    0.4100 A=    0.0000 R=    0.0000 C=    0.0000
 XYZ=   -3.8148   12.9326    0.8972 Q=    0.4100 A=    0.0000 R=    0.0000 C=    0.0000
 XYZ=    3.5077   -0.9237   11.9912 Q=   -0.8200 A=    0.0000 R=    0.0000 C=    0.0000
 XYZ=    3.5258   -1.1007   11.0072 Q=    0.4100 A=    0.0000 R=    0.0000 C=    0.0000
 XYZ=    4.1345   -0.1749   12.2068 Q=    0.4100 A=    0.0000 R=    0.0000 C=    0.0000
 XYZ=   -7.7035    6.7285    6.5490 Q=   -0.8200 A=    0.0000 R=    0.0000 C=    0.0000
 XYZ=   -7.6823    7.6430    6.1449 Q=    0.4100 A=    0.0000 R=    0.0000 C=    0.0000
 XYZ=   -7.5939    6.7996    7.5405 Q=    0.4100 A=    0.0000 R=    0.0000 C=    0.0000
 XYZ=  -12.3149   -1.1158   -1.8991 Q=   -0.8200 A=    0.0000 R=    0.0000 C=    0.0000
 XYZ=  -12.8603   -0.2934   -1.7374 Q=    0.4100 A=    0.0000 R=    0.0000 C=    0.0000
 XYZ=  -11.4610   -1.0564   -1.3820 Q=    0.4100 A=    0.0000 R=    0.0000 C=    0.0000
 XYZ=   -3.2683  -10.7145    3.0361 Q=   -0.8200 A=    0.0000 R=    0.0000 C=    0.0000
 XYZ=   -2.4894  -10.1932    3.3848 Q=    0.4100 A=    0.0000 R=    0.0000 C=    0.0000
 XYZ=   -3.7012  -10.2081    2.2904 Q=    0.4100 A=    0.0000 R=    0.0000 C=    0.0000
 XYZ=   -1.3491    1.9565   11.6078 Q=   -0.8200 A=    0.0000 R=    0.0000 C=    0.0000
 XYZ=   -0.4100    1.6742   11.8036 Q=    0.4100 A=    0.0000 R=    0.0000 C=    0.0000
 XYZ=   -1.3606    2.9242   11.3558 Q=    0.4100 A=    0.0000 R=    0.0000 C=    0.0000
 XYZ=   -0.1025   -2.1467   12.3159 Q=   -0.8200 A=    0.0000 R=    0.0000 C=    0.0000
 XYZ=   -0.3642   -2.6318   11.4814 Q=    0.4100 A=    0.0000 R=    0.0000 C=    0.0000
 XYZ=   -0.9186   -1.7627   12.7479 Q=    0.4100 A=    0.0000 R=    0.0000 C=    0.0000
 XYZ=    8.0570   -9.6953    3.4904 Q=   -0.8200 A=    0.0000 R=    0.0000 C=    0.0000
 XYZ=    7.4213   -8.9499    3.2894 Q=    0.4100 A=    0.0000 R=    0.0000 C=    0.0000
 XYZ=    7.9335   -9.9924    4.4372 Q=    0.4100 A=    0.0000 R=    0.0000 C=    0.0000
 XYZ=   -1.5875   12.4146   -0.5301 Q=   -0.8200 A=    0.0000 R=    0.0000 C=    0.0000
 XYZ=   -0.9682   11.6677   -0.2879 Q=    0.4100 A=    0.0000 R=    0.0000 C=    0.0000
 XYZ=   -2.3147   12.4795    0.1533 Q=    0.4100 A=    0.0000 R=    0.0000 C=    0.0000
 XYZ=   -1.2362    4.2651   11.3354 Q=   -0.8200 A=    0.0000 R=    0.0000 C=    0.0000
 XYZ=   -1.2851    4.8819   12.1209 Q=    0.4100 A=    0.0000 R=    0.0000 C=    0.0000
 XYZ=   -2.0484    4.3868   10.7649 Q=    0.4100 A=    0.0000 R=    0.0000 C=    0.0000
 XYZ=   -0.3156   -7.1775  -11.4141 Q=   -0.8200 A=    0.0000 R=    0.0000 C=    0.0000
 XYZ=   -1.2708   -7.3431  -11.1689 Q=    0.4100 A=    0.0000 R=    0.0000 C=    0.0000
 XYZ=    0.1151   -6.6099  -10.7124 Q=    0.4100 A=    0.0000 R=    0.0000 C=    0.0000
 XYZ=   -5.8359   -8.8684    0.1053 Q=   -0.8200 A=    0.0000 R=    0.0000 C=    0.0000
 XYZ=   -6.6747   -8.9500    0.6437 Q=    0.4100 A=    0.0000 R=    0.0000 C=    0.0000
 XYZ=   -5.8431   -9.5481   -0.6281 Q=    0.4100 A=    0.0000 R=    0.0000 C=    0.0000
[...]
    39  O    0.000002   0.000057   0.000000   0.000000   0.000000   0.000000
    40  H    0.000000   0.000000   0.000000   0.000000   0.000000   0.000000
    41  H    0.000000  -0.000009   0.000000   0.000000   0.000000   0.000000
    42  O    0.000000   0.000000   0.000000   0.000000   0.000000   0.000000
    43  H    0.000000   0.000000   0.000000   0.000000   0.000000   0.000000
    44  H    0.000000   0.000000   0.000000   0.000000   0.000000   0.000000
    45  O    0.000000   0.000000   0.000006   0.000000   0.000000  -0.003629
    46  H    0.000000   0.000000   0.000001   0.000000   0.000000   0.011457
    47  H    0.000000   0.000000   0.000000   0.000000   0.000000   0.003265
    48  O   -0.000001   0.000000  -0.069157   0.003120   0.002043   0.000563
    49  H    0.000000   0.000000   0.037302   0.000738  -0.002455  -0.000120
    50  H    0.000000   0.000000   0.000944  -0.000077  -0.000059  -0.000007
              31         32         33         34         35         36
     1  C    0.000100  -0.000165  -0.001810  -0.000376  -0.000690   0.005767
     2  H    0.000000  -0.000002   0.000346  -0.000017  -0.000027   0.000000
     3  H    0.000000   0.000000  -0.000009   0.000000   0.000002  -0.000019
     4  C    0.000076   0.000056  -0.003581   0.000085   0.002210  -0.004406
     5  H    0.000000   0.000000   0.000001   0.000000   0.000000   0.000234
     6  C    0.000010   0.000044  -0.000332   0.000049   0.000029  -0.001413
     7  H    0.000000   0.000000   0.000000   0.000000   0.000000   0.000007
     8  O    0.000000   0.000000  -0.000118  -0.000002   0.000000   0.000033
     9  O    0.000000   0.000000   0.000000   0.000000   0.000000   0.000003
    10  H    0.000000   0.000000   0.000000   0.000000   0.000000  -0.000001
    11  H    0.000000   0.000000   0.000000   0.000000   0.000000   0.000000
    12  O    0.000000  -0.000020  -0.003325   0.000151  -0.000026  -0.000036
    13  H    0.000000   0.000000   0.000150  -0.000011  -0.000002   0.000010
    14  H    0.000000   0.000000   0.000100  -0.000003   0.000001   0.000002
    15  O    0.000000   0.000000   0.000027  -0.000009   0.000000  -0.047433
    16  H    0.000000   0.000000   0.000001   0.000000   0.000000   0.001119
    17  H    0.000000   0.000000   0.000000   0.000000   0.000000   0.025019
    18  O   -0.003971  -0.001273  -0.001187   0.000036  -0.000903   0.000000
    19  H   -0.000040   0.000063   0.000028   0.000000   0.000030   0.000000
    20  H    0.000237   0.001792  -0.001733   0.000034   0.000504   0.000000
    21  O    0.000000   0.000000   0.000000   0.000000   0.000000   0.000000
    22  H    0.000000   0.000000   0.000000   0.000000   0.000000   0.000000
    23  H    0.000000   0.000000   0.000000   0.000000   0.000000   0.000000
    24  O    0.000000   0.000000   0.000750   0.000032  -0.000002  -0.000376
    25  H    0.000000   0.000000   0.000019  -0.000021   0.000000   0.000001
    26  H    0.000000   0.000000  -0.000031   0.000002   0.000000   0.000245
    27  O   -0.000033  -0.000024  -0.078180   0.000221   0.000407   0.000000
    28  H    0.000004   0.000005  -0.013587   0.000126   0.001528   0.000000
    29  H    0.000000  -0.000001   0.001083  -0.000065  -0.000084   0.000000
    30  O    0.189701   0.176299  -0.033504   0.000654   0.031847   0.000000
    31  H    0.158078  -0.008484  -0.001557   0.000047  -0.000578   0.000000
    32  H   -0.008484   0.145572  -0.001485   0.000049   0.000740   0.000000
    33  O   -0.001557  -0.001485   9.037465   0.201442   0.141392   0.000000
    34  H    0.000047   0.000049   0.201442   0.169442  -0.005134   0.000000
    35  H   -0.000578   0.000740   0.141392  -0.005134   0.222900   0.000000
    36  O    0.000000   0.000000   0.000000   0.000000   0.000000   8.877022
    37  H    0.000000   0.000000   0.000000   0.000000   0.000000   0.230771
    38  H    0.000000   0.000000   0.000000   0.000000   0.000000   0.161669
    39  O    0.000000   0.000000   0.000000   0.000000   0.000000  -0.067846
    40  H    0.000000   0.000000   0.000000   0.000000   0.000000   0.000468
    41  H    0.000000   0.000000   0.000000   0.000000   0.000000   0.000239
    42  O    0.000000   0.000000   0.000000   0.000000   0.000000   0.000000
    43  H    0.000000   0.000000   0.000000   0.000000   0.000000   0.000000
    44  H    0.000000   0.000000   0.000000   0.000000   0.000000   0.000000
    45  O   -0.000634   0.000047   0.000012   0.000000   0.000038   0.000000
    46  H   -0.000765  -0.000908   0.000022   0.000000   0.000006   0.000000
    47  H    0.000007  -0.000192   0.000010   0.000000  -0.000004   0.000000
    48  O   -0.000020   0.000035  -0.004473  -0.000033   0.000219   0.000000
    49  H    0.000002   0.000011   0.001765   0.000012  -0.000014   0.000000
    50  H    0.000000   0.000001   0.000062   0.000000  -0.000001   0.000000
              37         38         39         40         41         42
     1  C    0.000063   0.000314   0.000318   0.000001  -0.000270   0.000561
     2  H    0.000000   0.000000   0.000000   0.000000   0.000000   0.000000
     3  H    0.000000   0.000000   0.000000   0.000000   0.000000   0.000000
     4  C    0.000192  -0.001353  -0.002166   0.000154   0.000458  -0.004170
     5  H   -0.000033   0.000001  -0.000011   0.000000   0.000000   0.000001
     6  C   -0.000072   0.000420   0.001333  -0.000160   0.000085  -0.004093
     7  H    0.000000  -0.000001   0.000028   0.000000  -0.000004   0.000233
     8  O    0.000000  -0.000001  -0.000004   0.000000  -0.000006   0.000201
     9  O    0.000000   0.000000   0.000005   0.000000  -0.000003  -0.067127
    10  H    0.000000   0.000000  -0.000001   0.000000   0.000000   0.000926
    11  H    0.000000   0.000000   0.000000   0.000000   0.000000  -0.000502
    12  O    0.000000   0.000001   0.000008   0.000000  -0.000003   0.000000
    13  H    0.000000   0.000000   0.000000   0.000000   0.000000   0.000000
    14  H    0.000000   0.000000   0.000000   0.000000   0.000000   0.000001
    15  O    0.000491   0.003577  -0.002799   0.000042   0.000467   0.000000
    16  H   -0.000003  -0.000015  -0.000050   0.000000  -0.000005   0.000000
    17  H    0.000043  -0.001791   0.000350  -0.000004  -0.000034   0.000000
    18  O    0.000000   0.000000   0.000000   0.000000   0.000000   0.000000
    19  H    0.000000   0.000000   0.000000   0.000000   0.000000   0.000000
    20  H    0.000000   0.000000   0.000000   0.000000   0.000000   0.000000
    21  O    0.000000   0.000000   0.000000   0.000000   0.000000  -0.003267
    22  H    0.000000   0.000000   0.000000   0.000000   0.000000  -0.001022
    23  H    0.000000   0.000000   0.000000   0.000000   0.000000   0.000063
    24  O   -0.000001   0.000029  -0.000150   0.000000   0.000015   0.000000
    25  H    0.000000   0.000000   0.000002   0.000000   0.000000   0.000000
    26  H   -0.000001  -0.000013   0.000057   0.000000  -0.000009   0.000000
    27  O    0.000000   0.000000   0.000000   0.000000   0.000000   0.000000
    28  H    0.000000   0.000000   0.000000   0.000000   0.000000   0.000000
    29  H    0.000000   0.000000   0.000000   0.000000   0.000000   0.000000
    30  O    0.000000   0.000000   0.000000   0.000000   0.000000   0.000000
    31  H    0.000000   0.000000   0.000000   0.000000   0.000000   0.000000
    32  H    0.000000   0.000000   0.000000   0.000000   0.000000   0.000000
    33  O    0.000000   0.000000   0.000000   0.000000   0.000000   0.000000
    34  H    0.000000   0.000000   0.000000   0.000000   0.000000   0.000000
    35  H    0.000000   0.000000   0.000000   0.000000   0.000000   0.000000
    36  O    0.230771   0.161669  -0.067846   0.000468   0.000239   0.000000
    37  H    0.206599  -0.008316   0.001373  -0.000012   0.000024   0.000000
    38  H   -0.008316   0.235225   0.015163  -0.001307  -0.001607   0.000000
    39  O    0.001373   0.015163   8.745422   0.211890   0.223175   0.000004
    40  H   -0.000012  -0.001307   0.211890   0.167200  -0.012642   0.000000
    41  H    0.000024  -0.001607   0.223175  -0.012642   0.276114   0.000000
    42  O    0.000000   0.000000   0.000004   0.000000   0.000000   8.918350
    43  H    0.000000   0.000000   0.000000   0.000000   0.000000   0.220941
    44  H    0.000000   0.000000   0.000000   0.000000   0.000000   0.158421
    45  O    0.000000   0.000000   0.000000   0.000000   0.000000   0.000000
    46  H    0.000000   0.000000   0.000000   0.000000   0.000000   0.000000
    47  H    0.000000   0.000000   0.000000   0.000000   0.000000   0.000000
    48  O    0.000000   0.000000   0.000000   0.000000   0.000000   0.000000
    49  H    0.000000   0.000000   0.000000   0.000000   0.000000   0.000000
    50  H    0.000000   0.000000   0.000000   0.000000   0.000000   0.000000
              43         44         45         46         47         48
     1  C   -0.000010  -0.000212  -0.000056   0.000000   0.000045  -0.000606
     2  H    0.000000   0.000000   0.000000   0.000000   0.000000  -0.000002
     3  H    0.000000   0.000000   0.000000   0.000000   0.000000   0.000000
     4  C    0.000061   0.000417  -0.000025  -0.000006  -0.000072   0.000519
     5  H    0.000000  -0.000001   0.000000   0.000000   0.000000   0.000000
     6  C    0.000479   0.000135   0.000015  -0.000003  -0.000005  -0.000452
     7  H    0.000008  -0.000900   0.000000   0.000000   0.000000   0.000000
     8  O   -0.000008   0.000614   0.000000   0.000000   0.000000  -0.000023
     9  O    0.002959   0.019101   0.000000   0.000000   0.000000   0.000000
    10  H    0.000033   0.003695   0.000000   0.000000   0.000000   0.000000
    11  H   -0.000074  -0.002490   0.000000   0.000000   0.000000   0.000000
    12  O    0.000000   0.000001  -0.000001   0.000000   0.000000  -0.002705
    13  H    0.000000   0.000000   0.000000   0.000000   0.000000  -0.000001
    14  H    0.000000  -0.000001   0.000000   0.000000   0.000000   0.000042
    15  O    0.000000   0.000000   0.000000   0.000000   0.000000   0.000000
    16  H    0.000000   0.000000   0.000000   0.000000   0.000000   0.000000
    17  H    0.000000   0.000000   0.000000   0.000000   0.000000   0.000000
    18  O    0.000000   0.000000  -0.110863   0.000969   0.047729   0.000031
    19  H    0.000000   0.000000   0.002364   0.000028   0.001055   0.000000
    20  H    0.000000   0.000000   0.006744  -0.001263  -0.004052   0.000006
    21  O   -0.000095  -0.002210   0.000000   0.000000   0.000000   0.000001
    22  H    0.000003  -0.000199   0.000000   0.000000   0.000000   0.000000
    23  H    0.000004  -0.000025   0.000000   0.000000   0.000000   0.000000
    24  O    0.000000   0.000000   0.000000   0.000000   0.000000   0.000050
    25  H    0.000000   0.000000   0.000000   0.000000   0.000000  -0.000001
    26  H    0.000000   0.000000   0.000000   0.000000   0.000000   0.000000
    27  O    0.000000   0.000000   0.000006   0.000001   0.000000  -0.069157
    28  H    0.000000   0.000000   0.000000   0.000000   0.000000   0.003120
    29  H    0.000000   0.000000   0.000000   0.000000   0.000000   0.002043
    30  O    0.000000   0.000000  -0.003629   0.011457   0.003265   0.000563
    31  H    0.000000   0.000000  -0.000634  -0.000765   0.000007  -0.000020
    32  H    0.000000   0.000000   0.000047  -0.000908  -0.000192   0.000035
    33  O    0.000000   0.000000   0.000012   0.000022   0.000010  -0.004473
    34  H    0.000000   0.000000   0.000000   0.000000   0.000000  -0.000033
    35  H    0.000000   0.000000   0.000038   0.000006  -0.000004   0.000219
    36  O    0.000000   0.000000   0.000000   0.000000   0.000000   0.000000
    37  H    0.000000   0.000000   0.000000   0.000000   0.000000   0.000000
    38  H    0.000000   0.000000   0.000000   0.000000   0.000000   0.000000
    39  O    0.000000   0.000000   0.000000   0.000000   0.000000   0.000000
    40  H    0.000000   0.000000   0.000000   0.000000   0.000000   0.000000
    41  H    0.000000   0.000000   0.000000   0.000000   0.000000   0.000000
    42  O    0.220941   0.158421   0.000000   0.000000   0.000000   0.000000
    43  H    0.206940  -0.006087   0.000000   0.000000   0.000000   0.000000
    44  H   -0.006087   0.193225   0.000000   0.000000   0.000000   0.000000
    45  O    0.000000   0.000000   8.826590   0.236148   0.162038  -0.000007
    46  H    0.000000   0.000000   0.236148   0.263107  -0.005820   0.000000
    47  H    0.000000   0.000000   0.162038  -0.005820   0.205005   0.000000
    48  O    0.000000   0.000000  -0.000007   0.000000   0.000000   8.949145
    49  H    0.000000   0.000000   0.000000   0.000000   0.000000   0.138496
    50  H    0.000000   0.000000   0.000000   0.000000   0.000000   0.220157
              49         50
     1  C    0.000092   0.000016
     2  H   -0.000011   0.000000
     3  H    0.000000   0.000000
     4  C    0.000042  -0.000019
     5  H    0.000000   0.000000
     6  C   -0.000038   0.000013
     7  H    0.000000   0.000000
     8  O   -0.000098   0.000004
     9  O    0.000000   0.000000
    10  H    0.000000   0.000000
    11  H    0.000000   0.000000
    12  O    0.000346   0.000083
    13  H    0.000007   0.000000
    14  H   -0.000068  -0.000001
    15  O    0.000000   0.000000
    16  H    0.000000   0.000000
    17  H    0.000000   0.000000
    18  O   -0.000002   0.000000
    19  H    0.000000   0.000000
    20  H    0.000000   0.000000
    21  O    0.000000   0.000000
    22  H    0.000000   0.000000
    23  H    0.000000   0.000000
    24  O   -0.000024   0.000000
    25  H    0.000000   0.000000
    26  H    0.000000   0.000000
    27  O    0.037302   0.000944
    28  H    0.000738  -0.000077
    29  H   -0.002455  -0.000059
    30  O   -0.000120  -0.000007
    31  H    0.000002   0.000000
    32  H    0.000011   0.000001
    33  O    0.001765   0.000062
    34  H    0.000012   0.000000
    35  H   -0.000014  -0.000001
    36  O    0.000000   0.000000
    37  H    0.000000   0.000000
    38  H    0.000000   0.000000
    39  O    0.000000   0.000000
    40  H    0.000000   0.000000
    41  H    0.000000   0.000000
    42  O    0.000000   0.000000
    43  H    0.000000   0.000000
    44  H    0.000000   0.000000
    45  O    0.000000   0.000000
    46  H    0.000000   0.000000
    47  H    0.000000   0.000000
    48  O    0.138496   0.220157
    49  H    0.219807  -0.003764
    50  H   -0.003764   0.174029
 Mulliken charges:
               1
     1  C   -0.356445
     2  H    0.271298
     3  H    0.237292
     4  C   -0.130903
     5  H    0.228677
     6  C    0.026737
     7  H    0.176643
     8  O   -0.376760
     9  O   -1.243204
    10  H    0.526133
    11  H    0.681394
    12  O   -1.205802
    13  H    0.631698
    14  H    0.539350
    15  O   -1.151940
    16  H    0.600805
    17  H    0.578701
    18  O   -1.237558
    19  H    0.646246
    20  H    0.616437
    21  O   -1.187216
    22  H    0.575008
    23  H    0.629187
    24  O   -1.229658
    25  H    0.606500
    26  H    0.616787
    27  O   -1.279254
    28  H    0.613451
    29  H    0.633865
    30  O   -1.341063
    31  H    0.667819
    32  H    0.687840
    33  O   -1.239765
    34  H    0.633290
    35  H    0.605610
    36  O   -1.181081
    37  H    0.568880
    38  H    0.598006
    39  O   -1.126100
    40  H    0.634369
    41  H    0.514006
    42  O   -1.219520
    43  H    0.574847
    44  H    0.636515
    45  O   -1.118786
    46  H    0.497026
    47  H    0.590992
    48  O   -1.236948
    49  H    0.607975
    50  H    0.608617
 Sum of Mulliken charges =   0.00000
 Mulliken charges with hydrogens summed into heavy atoms:
               1
     1  C    0.152144
     4  C    0.097774
     6  C    0.203380
     8  O   -0.376760
     9  O   -0.035677
    12  O   -0.034754
    15  O    0.027567
    18  O    0.025126
    21  O    0.016979
    24  O   -0.006371
    27  O   -0.031937
    30  O    0.014596
    33  O   -0.000864
    36  O   -0.014195
    39  O    0.022275
    42  O   -0.008158
    45  O   -0.030768
    48  O   -0.020356
 Electronic spatial extent (au):  <R**2>=          13172.1762
 Charge=              0.0000 electrons
 Dipole moment (field-independent basis, Debye):
    X=             11.5971    Y=            -11.3067    Z=             -7.2746  Tot=             17.7554
 Quadrupole moment (field-independent basis, Debye-Ang):
   XX=           -125.7184   YY=            -88.9384   ZZ=           -164.1536
   XY=             42.4797   XZ=              9.5741   YZ=             34.0554
 Traceless Quadrupole moment (field-independent basis, Debye-Ang):
   XX=              0.5518   YY=             37.3317   ZZ=            -37.8835
   XY=             42.4797   XZ=              9.5741   YZ=             34.0554
 Octapole moment (field-independent basis, Debye-Ang**2):
  XXX=            374.7824  YYY=              9.0255  ZZZ=           -121.4854  XYY=            -32.8212
  XXY=           -233.7865  XXZ=             67.3036  XZZ=            230.3910  YZZ=            -58.6051
  YYZ=            110.8351  XYZ=             -8.0862
 Hexadecapole moment (field-independent basis, Debye-Ang**3):
 XXXX=          -8397.1236 YYYY=          -2904.6030 ZZZZ=          -2522.2608 XXXY=            682.1898
 XXXZ=           -853.1603 YYYX=           1025.8233 YYYZ=             96.4888 ZZZX=             44.1764
 ZZZY=            351.6625 XXYY=          -2525.1348 XXZZ=          -2805.1123 YYZZ=          -1135.2975
 XXYZ=           1041.0481 YYXZ=            245.2910 ZZXY=            157.6765
 N-N= 1.067161791018D+03 E-N=-6.099599406003D+03  KE= 1.249071816828D+03
 Leave Link  601 at Fri Sep 14 18:08:11 2018, MaxMem=    33554432 cpu:        21.4
 (Enter /usr/local/pacerepov1/gaussian/G09D01LINDA/g09/l9999.exe)

 Test job not archived.
 1\1\GINC-RICH133-B17-29-R\SP\RLC-wPBE TD-FC\6-31+G(d)\C3H32O15\ROOT\14
 -Sep-2018\0\\#p td=(nstates=15)/6-31+g(d) lc-wpbe charge\\Acroleina in
  Water\\0,1\C,0,0.485154,0.480443,-1.430142\H,0,1.461403,0.187773,-1.0
 55732\H,0,0.429244,0.878853,-2.437062\C,0,-0.605127,0.346563,-0.658432
 \H,0,-1.591686,0.632893,-1.012412\C,0,-0.508516,-0.199107,0.712798\H,0
 ,-1.458487,-0.272107,1.272438\O,0,0.544883,-0.561317,1.236519\O,0,-1.2
 55348,-1.534211,3.224274\H,0,-0.808798,-0.870731,2.623924\H,0,-0.79513
 8,-1.542941,4.112064\O,0,2.265582,1.376979,1.222204\H,0,2.034862,2.242
 329,0.777204\H,0,1.484042,0.755499,1.167784\O,0,-0.415878,3.848779,-0.
 630746\H,0,0.157792,4.644229,-0.826166\H,0,-1.280138,3.931169,-1.12704
 6\O,0,3.006412,-2.101101,-4.571146\H,0,2.439722,-1.574121,-5.204586\H,
 0,3.572772,-1.477161,-4.032646\O,0,0.339692,-3.722491,3.054474\H,0,-0.
 259868,-2.998591,2.713114\H,0,-0.211848,-4.43563,3.487174\O,0,1.754822
 ,3.574699,0.367754\H,0,2.329752,4.021399,-0.317756\H,0,0.797672,3.6217
 19,0.081824\O,0,4.468852,0.937579,0.406334\H,0,4.414112,1.137549,-0.57
 1956\H,0,3.592842,1.149899,0.839424\O,0,4.601762,-0.919491,-3.366866\H
 ,0,5.333282,-0.813231,-4.040366\H,0,4.887362,-1.571771,-2.664726\O,0,4
 .749202,1.367779,-1.940056\H,0,4.514902,2.236309,-2.376926\H,0,4.49225
 2,0.611799,-2.542197\O,0,-3.254268,4.02926,-0.942476\H,0,-3.979358,3.4
 27119,-1.276746\H,0,-3.383358,4.195479,0.035154\O,0,-3.417828,4.616879
 ,1.496504\H,0,-4.339308,4.31583,1.742174\H,0,-2.746538,4.11243,2.03959
 3\O,0,-3.395368,-2.194281,3.881263\H,0,-3.325628,-2.574451,4.803584\H,
 0,-2.485128,-1.936031,3.557523\O,0,4.296082,-4.070681,-4.181856\H,0,4.
 989902,-3.668671,-3.584296\H,0,3.563272,-3.407641,-4.334846\O,0,5.9204
 62,-1.008531,0.840334\H,0,5.206812,-0.309591,0.792894\H,0,5.641072,-1.
 727431,1.476884\\Version=EM64L-G09RevD.01\State=1-A\HF=-1759.3463282\R
 MSD=9.263e-09\PG=C01 [X(C3H32O15)]\\@


 WE DON'T KNOW ONE MILLIONTH OF ONE PERCENT ABOUT
 ANYTHING.
                                     T. A. EDISON.
 Job cpu time:       0 days  3 hours 22 minutes 10.0 seconds.
 File lengths (MBytes):  RWF=    792 Int=      0 D2E=      0 Chk=     96 Scr=      2
 Normal termination of Gaussian 09 at Fri Sep 14 18:08:16 2018.
