 Entering Gaussian System, Link 0=g09
 Input=Acroleina_water_15_82c.gjf
 Output=Acroleina_water_15_82c.log
 Initial command:
 /usr/local/pacerepov1/gaussian/G09D01LINDA/g09/l1.exe /nv/hp18/holiveira7/scratch/22412017/Gau-11005.inp -scrdir=/nv/hp18/holiveira7/scratch/22412017/
 Entering Link 1 = /usr/local/pacerepov1/gaussian/G09D01LINDA/g09/l1.exe PID=     11006.
  
 Copyright (c) 1988,1990,1992,1993,1995,1998,2003,2009,2013,
            Gaussian, Inc.  All Rights Reserved.
  
 This is part of the Gaussian(R) 09 program.  It is based on
 the Gaussian(R) 03 system (copyright 2003, Gaussian, Inc.),
 the Gaussian(R) 98 system (copyright 1998, Gaussian, Inc.),
 the Gaussian(R) 94 system (copyright 1995, Gaussian, Inc.),
 the Gaussian 92(TM) system (copyright 1992, Gaussian, Inc.),
 the Gaussian 90(TM) system (copyright 1990, Gaussian, Inc.),
 the Gaussian 88(TM) system (copyright 1988, Gaussian, Inc.),
 the Gaussian 86(TM) system (copyright 1986, Carnegie Mellon
 University), and the Gaussian 82(TM) system (copyright 1983,
 Carnegie Mellon University). Gaussian is a federally registered
 trademark of Gaussian, Inc.
  
 This software contains proprietary and confidential information,
 including trade secrets, belonging to Gaussian, Inc.
  
 This software is provided under written license and may be
 used, copied, transmitted, or stored only in accord with that
 written license.
  
 The following legend is applicable only to US Government
 contracts under FAR:
  
                    RESTRICTED RIGHTS LEGEND
  
 Use, reproduction and disclosure by the US Government is
 subject to restrictions as set forth in subparagraphs (a)
 and (c) of the Commercial Computer Software - Restricted
 Rights clause in FAR 52.227-19.
  
 Gaussian, Inc.
 340 Quinnipiac St., Bldg. 40, Wallingford CT 06492
  
  
 ---------------------------------------------------------------
 Warning -- This program may not be used in any manner that
 competes with the business of Gaussian, Inc. or will provide
 assistance to any competitor of Gaussian, Inc.  The licensee
 of this program is prohibited from giving any competitor of
 Gaussian, Inc. access to this program.  By using this program,
 the user acknowledges that Gaussian, Inc. is engaged in the
 business of creating and licensing software in the field of
 computational chemistry and represents and warrants to the
 licensee that it is not a competitor of Gaussian, Inc. and that
 it will not use this program in any manner prohibited above.
 ---------------------------------------------------------------
  

 Cite this work as:
 Gaussian 09, Revision D.01,
 M. J. Frisch, G. W. Trucks, H. B. Schlegel, G. E. Scuseria, 
 M. A. Robb, J. R. Cheeseman, G. Scalmani, V. Barone, B. Mennucci, 
 G. A. Petersson, H. Nakatsuji, M. Caricato, X. Li, H. P. Hratchian, 
 A. F. Izmaylov, J. Bloino, G. Zheng, J. L. Sonnenberg, M. Hada, 
 M. Ehara, K. Toyota, R. Fukuda, J. Hasegawa, M. Ishida, T. Nakajima, 
 Y. Honda, O. Kitao, H. Nakai, T. Vreven, J. A. Montgomery, Jr., 
 J. E. Peralta, F. Ogliaro, M. Bearpark, J. J. Heyd, E. Brothers, 
 K. N. Kudin, V. N. Staroverov, T. Keith, R. Kobayashi, J. Normand, 
 K. Raghavachari, A. Rendell, J. C. Burant, S. S. Iyengar, J. Tomasi, 
 M. Cossi, N. Rega, J. M. Millam, M. Klene, J. E. Knox, J. B. Cross, 
 V. Bakken, C. Adamo, J. Jaramillo, R. Gomperts, R. E. Stratmann, 
 O. Yazyev, A. J. Austin, R. Cammi, C. Pomelli, J. W. Ochterski, 
 R. L. Martin, K. Morokuma, V. G. Zakrzewski, G. A. Voth, 
 P. Salvador, J. J. Dannenberg, S. Dapprich, A. D. Daniels, 
 O. Farkas, J. B. Foresman, J. V. Ortiz, J. Cioslowski, 
 and D. J. Fox, Gaussian, Inc., Wallingford CT, 2013.
 
 ******************************************
 Gaussian 09:  EM64L-G09RevD.01 24-Apr-2013
                14-Sep-2018 
 ******************************************
 %chk=Acrolina_Din_82.chk
 %nprocshared=10
 Will use up to   10 processors via shared memory.
 -------------------------------------------
 #p td=(nstates=15)/6-31+g(d) lc-wpbe charge
 -------------------------------------------
 1/18=10,28=-2,38=1,125=101/1;
 2/12=2,17=6,18=5,40=1/2;
 3/5=1,6=6,7=11,11=9,16=1,25=1,30=1,74=-41/1,2,8,3;
 4//1;
 5/5=2,38=5/2;
 8/6=1,10=2,108=15/1;
 9/41=15,42=1,70=2/14;
 6/7=2,8=2,9=2,10=2/1;
 99/5=1,9=1/99;
 Leave Link    1 at Fri Sep 14 17:39:53 2018, MaxMem=           0 cpu:        14.2
 (Enter /usr/local/pacerepov1/gaussian/G09D01LINDA/g09/l101.exe)
 ------------------
 Acroleina in Water
 ------------------
 Symbolic Z-matrix:
 Charge =  0 Multiplicity = 1
 C                     0.48515   0.48044  -1.43014 
 H                     1.4614    0.18777  -1.05573 
 H                     0.42924   0.87885  -2.43706 
 C                    -0.60513   0.34656  -0.65843 
 H                    -1.59169   0.63289  -1.01241 
 C                    -0.50852  -0.19911   0.7128 
 H                    -1.45849  -0.27211   1.27244 
 O                     0.54488  -0.56132   1.23652 
 O                     2.65963  -2.37747   1.7199 
 H                     2.03546  -1.86412   1.13089 
 H                     2.17849  -3.16136   2.11233 
 O                     0.54101   0.37354   3.03861 
 H                     0.80769   0.2393    2.08422 
 H                     1.31154   0.14803   3.63483 
 O                    -0.64738   5.26217  -1.56729 
 H                    -1.44293   4.66989  -1.69512 
 H                    -0.51281   5.43347  -0.59131 
 O                    -3.00625   0.43128   2.87594 
 H                    -2.56313   1.05923   2.23612 
 H                    -2.31596   0.01986   3.47116 
 O                    -3.31594   4.25069  -1.78269 
 H                    -3.62451   5.1192   -1.39476 
 H                    -4.03027   3.56073  -1.66538 
 O                    -0.75988   5.63785   0.8092 
 H                    -1.74247   5.51049   0.67364 
 H                    -0.43253   4.99356   1.50041 
 O                     1.87985   5.00511  -2.14777 
 H                     2.07879   5.75795  -2.7752 
 H                     0.88967   4.90903  -2.04585 
 O                     4.30259  -1.59665   3.24612 
 H                     5.1878   -1.25162   2.93401 
 H                     3.70861  -1.75266   2.45689 
 O                    -1.44745  -0.36219   4.36704 
 H                    -1.41059  -1.36146   4.35564 
 H                    -0.61435   0.00676   3.95493 
 O                    -4.96478   3.5777    0.52581 
 H                    -4.07651   4.02877   0.61298 
 H                    -5.02869   3.1378   -0.37 
 O                    -5.15517  -1.47053  -0.62298 
 H                    -4.63508  -1.2653    0.20609 
 H                    -5.17563  -2.45988  -0.76722 
 O                     4.41258  -4.16627   0.74905 
 H                     3.69739  -3.52335   1.02331 
 H                     4.70373  -4.69956   1.54332 
 O                    -3.16718   5.32211   0.70116 
 H                    -3.66879   5.82093  -0.00564 
 H                    -3.51367   5.58252   1.60236 
 O                     4.91685   2.88805   0.1634 
 H                     4.41868   3.38661  -0.54607 
 H                     4.30556   2.2261    0.59717 
 
 NAtoms=     50 NQM=       50 NQMF=       0 NMMI=      0 NMMIF=      0
                NMic=       0 NMicF=      0.
                    Isotopes and Nuclear Properties:
 (Nuclear quadrupole moments (NQMom) in fm**2, nuclear magnetic moments (NMagM)
  in nuclear magnetons)

  Atom         1           2           3           4           5           6           7           8           9          10
 IAtWgt=          12           1           1          12           1          12           1          16          16           1
 AtmWgt=  12.0000000   1.0078250   1.0078250  12.0000000   1.0078250  12.0000000   1.0078250  15.9949146  15.9949146   1.0078250
 NucSpn=           0           1           1           0           1           0           1           0           0           1
 AtZEff=   0.0000000   0.0000000   0.0000000   0.0000000   0.0000000   0.0000000   0.0000000   0.0000000   0.0000000   0.0000000
 NQMom=    0.0000000   0.0000000   0.0000000   0.0000000   0.0000000   0.0000000   0.0000000   0.0000000   0.0000000   0.0000000
 NMagM=    0.0000000   2.7928460   2.7928460   0.0000000   2.7928460   0.0000000   2.7928460   0.0000000   0.0000000   2.7928460
 AtZNuc=   6.0000000   1.0000000   1.0000000   6.0000000   1.0000000   6.0000000   1.0000000   8.0000000   8.0000000   1.0000000

  Atom        11          12          13          14          15          16          17          18          19          20
 IAtWgt=           1          16           1           1          16           1           1          16           1           1
 AtmWgt=   1.0078250  15.9949146   1.0078250   1.0078250  15.9949146   1.0078250   1.0078250  15.9949146   1.0078250   1.0078250
 NucSpn=           1           0           1           1           0           1           1           0           1           1
 AtZEff=   0.0000000   0.0000000   0.0000000   0.0000000   0.0000000   0.0000000   0.0000000   0.0000000   0.0000000   0.0000000
 NQMom=    0.0000000   0.0000000   0.0000000   0.0000000   0.0000000   0.0000000   0.0000000   0.0000000   0.0000000   0.0000000
 NMagM=    2.7928460   0.0000000   2.7928460   2.7928460   0.0000000   2.7928460   2.7928460   0.0000000   2.7928460   2.7928460
 AtZNuc=   1.0000000   8.0000000   1.0000000   1.0000000   8.0000000   1.0000000   1.0000000   8.0000000   1.0000000   1.0000000

  Atom        21          22          23          24          25          26          27          28          29          30
 IAtWgt=          16           1           1          16           1           1          16           1           1          16
 AtmWgt=  15.9949146   1.0078250   1.0078250  15.9949146   1.0078250   1.0078250  15.9949146   1.0078250   1.0078250  15.9949146
 NucSpn=           0           1           1           0           1           1           0           1           1           0
 AtZEff=   0.0000000   0.0000000   0.0000000   0.0000000   0.0000000   0.0000000   0.0000000   0.0000000   0.0000000   0.0000000
 NQMom=    0.0000000   0.0000000   0.0000000   0.0000000   0.0000000   0.0000000   0.0000000   0.0000000   0.0000000   0.0000000
 NMagM=    0.0000000   2.7928460   2.7928460   0.0000000   2.7928460   2.7928460   0.0000000   2.7928460   2.7928460   0.0000000
 AtZNuc=   8.0000000   1.0000000   1.0000000   8.0000000   1.0000000   1.0000000   8.0000000   1.0000000   1.0000000   8.0000000

  Atom        31          32          33          34          35          36          37          38          39          40
 IAtWgt=           1           1          16           1           1          16           1           1          16           1
 AtmWgt=   1.0078250   1.0078250  15.9949146   1.0078250   1.0078250  15.9949146   1.0078250   1.0078250  15.9949146   1.0078250
 NucSpn=           1           1           0           1           1           0           1           1           0           1
 AtZEff=   0.0000000   0.0000000   0.0000000   0.0000000   0.0000000   0.0000000   0.0000000   0.0000000   0.0000000   0.0000000
 NQMom=    0.0000000   0.0000000   0.0000000   0.0000000   0.0000000   0.0000000   0.0000000   0.0000000   0.0000000   0.0000000
 NMagM=    2.7928460   2.7928460   0.0000000   2.7928460   2.7928460   0.0000000   2.7928460   2.7928460   0.0000000   2.7928460
 AtZNuc=   1.0000000   1.0000000   8.0000000   1.0000000   1.0000000   8.0000000   1.0000000   1.0000000   8.0000000   1.0000000

  Atom        41          42          43          44          45          46          47          48          49          50
 IAtWgt=           1          16           1           1          16           1           1          16           1           1
 AtmWgt=   1.0078250  15.9949146   1.0078250   1.0078250  15.9949146   1.0078250   1.0078250  15.9949146   1.0078250   1.0078250
 NucSpn=           1           0           1           1           0           1           1           0           1           1
 AtZEff=   0.0000000   0.0000000   0.0000000   0.0000000   0.0000000   0.0000000   0.0000000   0.0000000   0.0000000   0.0000000
 NQMom=    0.0000000   0.0000000   0.0000000   0.0000000   0.0000000   0.0000000   0.0000000   0.0000000   0.0000000   0.0000000
 NMagM=    2.7928460   0.0000000   2.7928460   2.7928460   0.0000000   2.7928460   2.7928460   0.0000000   2.7928460   2.7928460
 AtZNuc=   1.0000000   8.0000000   1.0000000   1.0000000   8.0000000   1.0000000   1.0000000   8.0000000   1.0000000   1.0000000
 Background charge distribution read from input stream:
 Point Charges:
 XYZ=   -4.9681    2.6348   -1.6584 Q=   -0.8200 A=    0.0000 R=    0.0000 C=    0.0000
 XYZ=   -5.0831    1.6420   -1.6226 Q=    0.4100 A=    0.0000 R=    0.0000 C=    0.0000
 XYZ=   -5.3641    2.9858   -2.5069 Q=    0.4100 A=    0.0000 R=    0.0000 C=    0.0000
 XYZ=   -4.2587   -1.1389    1.4317 Q=   -0.8200 A=    0.0000 R=    0.0000 C=    0.0000
 XYZ=   -3.6199   -0.5441    1.9198 Q=    0.4100 A=    0.0000 R=    0.0000 C=    0.0000
 XYZ=   -4.1739   -2.0736    1.7770 Q=    0.4100 A=    0.0000 R=    0.0000 C=    0.0000
 XYZ=    2.3974   -0.2786    4.5932 Q=   -0.8200 A=    0.0000 R=    0.0000 C=    0.0000
 XYZ=    2.6530    0.4458    5.2334 Q=    0.4100 A=    0.0000 R=    0.0000 C=    0.0000
 XYZ=    3.1965   -0.5437    4.0535 Q=    0.4100 A=    0.0000 R=    0.0000 C=    0.0000
 XYZ=    1.7937   -4.4936    2.6042 Q=   -0.8200 A=    0.0000 R=    0.0000 C=    0.0000
 XYZ=    1.4302   -5.1382    1.9316 Q=    0.4100 A=    0.0000 R=    0.0000 C=    0.0000
 XYZ=    2.4511   -4.9626    3.1939 Q=    0.4100 A=    0.0000 R=    0.0000 C=    0.0000
 XYZ=   -5.7137    0.2923   -2.0048 Q=   -0.8200 A=    0.0000 R=    0.0000 C=    0.0000
 XYZ=   -5.3745    0.0717   -2.9193 Q=    0.4100 A=    0.0000 R=    0.0000 C=    0.0000
 XYZ=   -5.5903   -0.4977   -1.4041 Q=    0.4100 A=    0.0000 R=    0.0000 C=    0.0000
 XYZ=   -1.5503   -6.0115    0.3005 Q=   -0.8200 A=    0.0000 R=    0.0000 C=    0.0000
 XYZ=   -1.5294   -7.0080    0.2198 Q=    0.4100 A=    0.0000 R=    0.0000 C=    0.0000
 XYZ=   -2.2275   -5.6399   -0.3346 Q=    0.4100 A=    0.0000 R=    0.0000 C=    0.0000
 XYZ=   -3.1056    5.0551   -4.2585 Q=   -0.8200 A=    0.0000 R=    0.0000 C=    0.0000
 XYZ=   -3.1625    4.6720   -3.3365 Q=    0.4100 A=    0.0000 R=    0.0000 C=    0.0000
 XYZ=   -3.6653    4.5087   -4.8815 Q=    0.4100 A=    0.0000 R=    0.0000 C=    0.0000
 XYZ=   -3.8628   -3.3310    1.9680 Q=   -0.8200 A=    0.0000 R=    0.0000 C=    0.0000
 XYZ=   -4.3720   -3.2301    2.8227 Q=    0.4100 A=    0.0000 R=    0.0000 C=    0.0000
 XYZ=   -3.0578   -3.9033    2.1252 Q=    0.4100 A=    0.0000 R=    0.0000 C=    0.0000
 XYZ=   -0.2096    7.1723   -2.8573 Q=   -0.8200 A=    0.0000 R=    0.0000 C=    0.0000
 XYZ=   -0.4405    6.3791   -2.2937 Q=    0.4100 A=    0.0000 R=    0.0000 C=    0.0000
 XYZ=   -0.1939    7.9934   -2.2867 Q=    0.4100 A=    0.0000 R=    0.0000 C=    0.0000
 XYZ=   -2.0713   -4.7699    2.1747 Q=   -0.8200 A=    0.0000 R=    0.0000 C=    0.0000
 XYZ=   -1.2924   -4.5404    2.7584 Q=    0.4100 A=    0.0000 R=    0.0000 C=    0.0000
 XYZ=   -1.7930   -5.4551    1.5015 Q=    0.4100 A=    0.0000 R=    0.0000 C=    0.0000
 XYZ=   -2.6697    1.9924   -5.9012 Q=   -0.8200 A=    0.0000 R=    0.0000 C=    0.0000
 XYZ=   -2.5223    1.0780   -5.5241 Q=    0.4100 A=    0.0000 R=    0.0000 C=    0.0000
 XYZ=   -1.9424    2.6032   -5.5882 Q=    0.4100 A=    0.0000 R=    0.0000 C=    0.0000
 XYZ=    0.7642   -6.2411    1.2276 Q=   -0.8200 A=    0.0000 R=    0.0000 C=    0.0000
 XYZ=    1.2572   -6.6544    0.4619 Q=    0.4100 A=    0.0000 R=    0.0000 C=    0.0000
 XYZ=   -0.1828   -6.0657    0.9585 Q=    0.4100 A=    0.0000 R=    0.0000 C=    0.0000
 XYZ=   -0.3029   -4.7040    3.7893 Q=   -0.8200 A=    0.0000 R=    0.0000 C=    0.0000
 XYZ=    0.5616   -4.5503    3.3106 Q=    0.4100 A=    0.0000 R=    0.0000 C=    0.0000
 XYZ=   -0.2315   -5.5294    4.3494 Q=    0.4100 A=    0.0000 R=    0.0000 C=    0.0000
 XYZ=    1.2752   -2.0813    5.6044 Q=   -0.8200 A=    0.0000 R=    0.0000 C=    0.0000
 XYZ=    1.7346   -1.2950    5.1911 Q=    0.4100 A=    0.0000 R=    0.0000 C=    0.0000
 XYZ=    0.5032   -2.3555    5.0309 Q=    0.4100 A=    0.0000 R=    0.0000 C=    0.0000
 XYZ=   -0.9348   -2.6580    4.5583 Q=   -0.8200 A=    0.0000 R=    0.0000 C=    0.0000
 XYZ=   -1.3854   -2.6166    5.4501 Q=    0.4100 A=    0.0000 R=    0.0000 C=    0.0000
 XYZ=   -0.7536   -3.6123    4.3205 Q=    0.4100 A=    0.0000 R=    0.0000 C=    0.0000
 XYZ=   -4.8701   -3.8245   -0.1329 Q=   -0.8200 A=    0.0000 R=    0.0000 C=    0.0000
 XYZ=   -4.2882   -4.5190   -0.5561 Q=    0.4100 A=    0.0000 R=    0.0000 C=    0.0000
 XYZ=   -4.4521   -3.5148    0.7211 Q=    0.4100 A=    0.0000 R=    0.0000 C=    0.0000
 XYZ=    4.2323    4.2804   -1.4415 Q=   -0.8200 A=    0.0000 R=    0.0000 C=    0.0000
 XYZ=    4.9530    4.7787   -1.9235 Q=    0.4100 A=    0.0000 R=    0.0000 C=    0.0000
 XYZ=    3.3391    4.6320   -1.7220 Q=    0.4100 A=    0.0000 R=    0.0000 C=    0.0000
 XYZ=   -1.2473    3.8530   -5.2035 Q=   -0.8200 A=    0.0000 R=    0.0000 C=    0.0000
 XYZ=   -2.0126    4.3846   -4.8402 Q=    0.4100 A=    0.0000 R=    0.0000 C=    0.0000
 XYZ=   -0.6239    4.4602   -5.6961 Q=    0.4100 A=    0.0000 R=    0.0000 C=    0.0000
 XYZ=    0.4379    7.8122    0.6074 Q=   -0.8200 A=    0.0000 R=    0.0000 C=    0.0000
 XYZ=    0.1389    8.5956    1.1522 Q=    0.4100 A=    0.0000 R=    0.0000 C=    0.0000
 XYZ=   -0.0520    6.9928    0.9051 Q=    0.4100 A=    0.0000 R=    0.0000 C=    0.0000
 XYZ=   -4.7841    1.7131    3.8467 Q=   -0.8200 A=    0.0000 R=    0.0000 C=    0.0000
 XYZ=   -3.9438    1.3013    3.4939 Q=    0.4100 A=    0.0000 R=    0.0000 C=    0.0000
 XYZ=   -5.2519    1.0588    4.4409 Q=    0.4100 A=    0.0000 R=    0.0000 C=    0.0000
 XYZ=   -6.4730   -0.3076    1.7926 Q=   -0.8200 A=    0.0000 R=    0.0000 C=    0.0000
 XYZ=   -5.6279   -0.7992    1.5825 Q=    0.4100 A=    0.0000 R=    0.0000 C=    0.0000
 XYZ=   -6.3193    0.6758    1.6963 Q=    0.4100 A=    0.0000 R=    0.0000 C=    0.0000
 XYZ=   -3.9310   -5.6106   -1.2881 Q=   -0.8200 A=    0.0000 R=    0.0000 C=    0.0000
 XYZ=   -4.2032   -5.3524   -2.2151 Q=    0.4100 A=    0.0000 R=    0.0000 C=    0.0000
 XYZ=   -3.8956   -6.6074   -1.2165 Q=    0.4100 A=    0.0000 R=    0.0000 C=    0.0000
 XYZ=   -4.4005    6.2878   -1.2140 Q=   -0.8200 A=    0.0000 R=    0.0000 C=    0.0000
 XYZ=   -4.0324    7.2139   -1.2970 Q=    0.4100 A=    0.0000 R=    0.0000 C=    0.0000
 XYZ=   -5.1261    6.1558   -1.8894 Q=    0.4100 A=    0.0000 R=    0.0000 C=    0.0000
 XYZ=    4.7008   -2.3667    5.4082 Q=   -0.8200 A=    0.0000 R=    0.0000 C=    0.0000
 XYZ=    4.5168   -1.9702    4.5087 Q=    0.4100 A=    0.0000 R=    0.0000 C=    0.0000
 XYZ=    4.6610   -1.6490    6.1033 Q=    0.4100 A=    0.0000 R=    0.0000 C=    0.0000
 XYZ=    3.9132   -5.7593   -0.9101 Q=   -0.8200 A=    0.0000 R=    0.0000 C=    0.0000
 XYZ=    4.1164   -5.0130   -0.2763 Q=    0.4100 A=    0.0000 R=    0.0000 C=    0.0000
 XYZ=    4.5419   -5.7176   -1.6866 Q=    0.4100 A=    0.0000 R=    0.0000 C=    0.0000
 XYZ=   -6.1474    2.0670    2.0272 Q=   -0.8200 A=    0.0000 R=    0.0000 C=    0.0000
 XYZ=   -5.7654    2.8360    1.5146 Q=    0.4100 A=    0.0000 R=    0.0000 C=    0.0000
 XYZ=   -5.5900    1.8987    2.8402 Q=    0.4100 A=    0.0000 R=    0.0000 C=    0.0000
 XYZ=    4.7240    5.7654    0.5769 Q=   -0.8200 A=    0.0000 R=    0.0000 C=    0.0000
 XYZ=    4.5761    5.0814   -0.1375 Q=    0.4100 A=    0.0000 R=    0.0000 C=    0.0000
 XYZ=    4.7478    6.6768    0.1659 Q=    0.4100 A=    0.0000 R=    0.0000 C=    0.0000
 XYZ=    2.8315   -3.7301    5.8398 Q=   -0.8200 A=    0.0000 R=    0.0000 C=    0.0000
 XYZ=    3.6286   -3.1462    5.6858 Q=    0.4100 A=    0.0000 R=    0.0000 C=    0.0000
 XYZ=    2.0027   -3.2413    5.5676 Q=    0.4100 A=    0.0000 R=    0.0000 C=    0.0000
 XYZ=   -3.3940   -1.2460    5.3982 Q=   -0.8200 A=    0.0000 R=    0.0000 C=    0.0000
 XYZ=   -2.6724   -0.7024    4.9695 Q=    0.4100 A=    0.0000 R=    0.0000 C=    0.0000
 XYZ=   -2.9878   -1.8774    6.0588 Q=    0.4100 A=    0.0000 R=    0.0000 C=    0.0000
 XYZ=    2.0942   -7.2434   -0.3704 Q=   -0.8200 A=    0.0000 R=    0.0000 C=    0.0000
 XYZ=    2.8115   -6.5840   -0.5955 Q=    0.4100 A=    0.0000 R=    0.0000 C=    0.0000
 XYZ=    1.7770   -7.6895   -1.2073 Q=    0.4100 A=    0.0000 R=    0.0000 C=    0.0000
 XYZ=   -4.0213    5.4493    2.9961 Q=   -0.8200 A=    0.0000 R=    0.0000 C=    0.0000
 XYZ=   -4.7606    6.0335    2.6612 Q=    0.4100 A=    0.0000 R=    0.0000 C=    0.0000
 XYZ=   -4.3903    4.7842    3.6454 Q=    0.4100 A=    0.0000 R=    0.0000 C=    0.0000
 XYZ=   -8.0207    0.7071   -1.7348 Q=   -0.8200 A=    0.0000 R=    0.0000 C=    0.0000
 XYZ=   -8.1280    1.6793   -1.9435 Q=    0.4100 A=    0.0000 R=    0.0000 C=    0.0000
 XYZ=   -7.0633    0.4443   -1.8543 Q=    0.4100 A=    0.0000 R=    0.0000 C=    0.0000
 XYZ=   -4.3423    3.5193   -5.8041 Q=   -0.8200 A=    0.0000 R=    0.0000 C=    0.0000
 XYZ=   -4.6310    3.8299   -6.7097 Q=    0.4100 A=    0.0000 R=    0.0000 C=    0.0000
 XYZ=   -3.5493    2.9169   -5.8955 Q=    0.4100 A=    0.0000 R=    0.0000 C=    0.0000
 XYZ=    3.4010   -5.1886    4.0649 Q=   -0.8200 A=    0.0000 R=    0.0000 C=    0.0000
 XYZ=    3.0782   -6.0748    4.3975 Q=    0.4100 A=    0.0000 R=    0.0000 C=    0.0000
 XYZ=    3.1106   -4.4697    4.6964 Q=    0.4100 A=    0.0000 R=    0.0000 C=    0.0000
 XYZ=    2.0018    6.9242   -3.6436 Q=   -0.8200 A=    0.0000 R=    0.0000 C=    0.0000
 XYZ=    1.0696    7.1270   -3.3438 Q=    0.4100 A=    0.0000 R=    0.0000 C=    0.0000
 XYZ=    2.0164    6.8175   -4.6378 Q=    0.4100 A=    0.0000 R=    0.0000 C=    0.0000
 XYZ=    6.5408   -4.1801   -0.2110 Q=   -0.8200 A=    0.0000 R=    0.0000 C=    0.0000
 XYZ=    5.6088   -4.1164    0.1460 Q=    0.4100 A=    0.0000 R=    0.0000 C=    0.0000
 XYZ=    6.5549   -4.7978   -0.9974 Q=    0.4100 A=    0.0000 R=    0.0000 C=    0.0000
 XYZ=   -6.8427    5.1268    0.6423 Q=   -0.8200 A=    0.0000 R=    0.0000 C=    0.0000
 XYZ=   -6.1042    4.4619    0.7549 Q=    0.4100 A=    0.0000 R=    0.0000 C=    0.0000
 XYZ=   -7.6652    4.7925    1.1024 Q=    0.4100 A=    0.0000 R=    0.0000 C=    0.0000
 XYZ=   -1.6691    7.3170   -4.6638 Q=   -0.8200 A=    0.0000 R=    0.0000 C=    0.0000
 XYZ=   -1.0494    7.3815   -3.8816 Q=    0.4100 A=    0.0000 R=    0.0000 C=    0.0000
 XYZ=   -2.1640    6.4489   -4.6262 Q=    0.4100 A=    0.0000 R=    0.0000 C=    0.0000
 XYZ=   -0.1099   -1.5002    7.4173 Q=   -0.8200 A=    0.0000 R=    0.0000 C=    0.0000
 XYZ=    0.5015   -1.6117    6.6339 Q=    0.4100 A=    0.0000 R=    0.0000 C=    0.0000
 XYZ=    0.2970   -1.9329    8.2218 Q=    0.4100 A=    0.0000 R=    0.0000 C=    0.0000
 XYZ=   -3.3917   -6.2090    3.8341 Q=   -0.8200 A=    0.0000 R=    0.0000 C=    0.0000
 XYZ=   -2.7775   -5.6761    3.2521 Q=    0.4100 A=    0.0000 R=    0.0000 C=    0.0000
 XYZ=   -4.1617   -5.6374    4.1176 Q=    0.4100 A=    0.0000 R=    0.0000 C=    0.0000
 XYZ=    3.6532    6.6971    2.7599 Q=   -0.8200 A=    0.0000 R=    0.0000 C=    0.0000
 XYZ=    3.1297    7.4614    2.3833 Q=    0.4100 A=    0.0000 R=    0.0000 C=    0.0000
 XYZ=    4.0383    6.1563    2.0120 Q=    0.4100 A=    0.0000 R=    0.0000 C=    0.0000
 XYZ=    7.1344    2.2193   -0.5728 Q=   -0.8200 A=    0.0000 R=    0.0000 C=    0.0000
 XYZ=    7.1279    2.1967   -1.5725 Q=    0.4100 A=    0.0000 R=    0.0000 C=    0.0000
 XYZ=    6.2487    2.5442   -0.2411 Q=    0.4100 A=    0.0000 R=    0.0000 C=    0.0000
 XYZ=    6.5766   -0.6870    2.7589 Q=   -0.8200 A=    0.0000 R=    0.0000 C=    0.0000
 XYZ=    6.7867    0.2151    3.1359 Q=    0.4100 A=    0.0000 R=    0.0000 C=    0.0000
 XYZ=    7.0576   -0.8055    1.8902 Q=    0.4100 A=    0.0000 R=    0.0000 C=    0.0000
 XYZ=    3.7202    1.3599    5.8090 Q=   -0.8200 A=    0.0000 R=    0.0000 C=    0.0000
 XYZ=    4.3483    0.6554    6.1393 Q=    0.4100 A=    0.0000 R=    0.0000 C=    0.0000
 XYZ=    4.2324    2.0499    5.2975 Q=    0.4100 A=    0.0000 R=    0.0000 C=    0.0000
 XYZ=    1.2675   -8.2781    2.0786 Q=   -0.8200 A=    0.0000 R=    0.0000 C=    0.0000
 XYZ=    1.0548   -7.4071    1.6357 Q=    0.4100 A=    0.0000 R=    0.0000 C=    0.0000
 XYZ=    1.7028   -8.8901    1.4183 Q=    0.4100 A=    0.0000 R=    0.0000 C=    0.0000
 XYZ=   -4.8684    3.8600    4.6530 Q=   -0.8200 A=    0.0000 R=    0.0000 C=    0.0000
 XYZ=   -4.8591    3.6268    5.6254 Q=    0.4100 A=    0.0000 R=    0.0000 C=    0.0000
 XYZ=   -4.7263    3.0321    4.1104 Q=    0.4100 A=    0.0000 R=    0.0000 C=    0.0000
 XYZ=    0.1242    8.9834   -1.3906 Q=   -0.8200 A=    0.0000 R=    0.0000 C=    0.0000
 XYZ=    0.9543    9.4460   -1.7019 Q=    0.4100 A=    0.0000 R=    0.0000 C=    0.0000
 XYZ=    0.3070    8.5177   -0.5247 Q=    0.4100 A=    0.0000 R=    0.0000 C=    0.0000
 XYZ=    2.6142    8.1973    1.3985 Q=   -0.8200 A=    0.0000 R=    0.0000 C=    0.0000
 XYZ=    2.5473    8.9599    2.0419 Q=    0.4100 A=    0.0000 R=    0.0000 C=    0.0000
 XYZ=    1.6961    7.9120    1.1232 Q=    0.4100 A=    0.0000 R=    0.0000 C=    0.0000
 XYZ=    5.1225   -5.7277    2.5279 Q=   -0.8200 A=    0.0000 R=    0.0000 C=    0.0000
 XYZ=    4.4766   -5.4259    3.2291 Q=    0.4100 A=    0.0000 R=    0.0000 C=    0.0000
 XYZ=    4.8136   -6.5973    2.1424 Q=    0.4100 A=    0.0000 R=    0.0000 C=    0.0000
 XYZ=   -3.2797    2.1123   -8.2219 Q=   -0.8200 A=    0.0000 R=    0.0000 C=    0.0000
 XYZ=   -3.4576    1.2483   -8.6928 Q=    0.4100 A=    0.0000 R=    0.0000 C=    0.0000
 XYZ=   -2.9803    1.9263   -7.2860 Q=    0.4100 A=    0.0000 R=    0.0000 C=    0.0000
 XYZ=   -5.9048    3.8929   -4.1041 Q=   -0.8200 A=    0.0000 R=    0.0000 C=    0.0000
 XYZ=   -5.3050    3.9281   -4.9035 Q=    0.4100 A=    0.0000 R=    0.0000 C=    0.0000
 XYZ=   -6.7149    3.3475   -4.3191 Q=    0.4100 A=    0.0000 R=    0.0000 C=    0.0000
 XYZ=    5.0922    2.9433    4.7086 Q=   -0.8200 A=    0.0000 R=    0.0000 C=    0.0000
 XYZ=    5.8007    2.8987    5.4130 Q=    0.4100 A=    0.0000 R=    0.0000 C=    0.0000
 XYZ=    4.9655    3.8933    4.4231 Q=    0.4100 A=    0.0000 R=    0.0000 C=    0.0000
 XYZ=   -0.3812    5.9175   -6.0917 Q=   -0.8200 A=    0.0000 R=    0.0000 C=    0.0000
 XYZ=    0.5423    6.2691   -5.9382 Q=    0.4100 A=    0.0000 R=    0.0000 C=    0.0000
 XYZ=   -1.0316    6.4351   -5.5357 Q=    0.4100 A=    0.0000 R=    0.0000 C=    0.0000
 XYZ=   -3.3605    6.8875    4.6278 Q=   -0.8200 A=    0.0000 R=    0.0000 C=    0.0000
 XYZ=   -4.2290    7.2691    4.9443 Q=    0.4100 A=    0.0000 R=    0.0000 C=    0.0000
 XYZ=   -3.5350    6.2074    3.9158 Q=    0.4100 A=    0.0000 R=    0.0000 C=    0.0000
 XYZ=   -6.5793   -5.4667    0.7198 Q=   -0.8200 A=    0.0000 R=    0.0000 C=    0.0000
 XYZ=   -7.3276   -5.7155    0.1047 Q=    0.4100 A=    0.0000 R=    0.0000 C=    0.0000
 XYZ=   -6.0494   -4.7213    0.3154 Q=    0.4100 A=    0.0000 R=    0.0000 C=    0.0000
 XYZ=   -6.1209    5.9279   -3.0323 Q=   -0.8200 A=    0.0000 R=    0.0000 C=    0.0000
 XYZ=   -6.4152    6.6299   -3.6808 Q=    0.4100 A=    0.0000 R=    0.0000 C=    0.0000
 XYZ=   -6.0092    5.0573   -3.5114 Q=    0.4100 A=    0.0000 R=    0.0000 C=    0.0000
 XYZ=   -1.7066   -8.3054    0.1981 Q=   -0.8200 A=    0.0000 R=    0.0000 C=    0.0000
 XYZ=   -2.5860   -8.0039   -0.1704 Q=    0.4100 A=    0.0000 R=    0.0000 C=    0.0000
 XYZ=   -1.3588   -9.0662   -0.3499 Q=    0.4100 A=    0.0000 R=    0.0000 C=    0.0000
 XYZ=   -4.9248   -2.7497    4.1125 Q=   -0.8200 A=    0.0000 R=    0.0000 C=    0.0000
 XYZ=   -5.8307   -2.3308    4.0506 Q=    0.4100 A=    0.0000 R=    0.0000 C=    0.0000
 XYZ=   -4.3289   -2.1738    4.6722 Q=    0.4100 A=    0.0000 R=    0.0000 C=    0.0000
 XYZ=    6.6802    5.1499    1.9456 Q=   -0.8200 A=    0.0000 R=    0.0000 C=    0.0000
 XYZ=    6.3480    5.2421    2.8843 Q=    0.4100 A=    0.0000 R=    0.0000 C=    0.0000
 XYZ=    5.9082    5.2028    1.3121 Q=    0.4100 A=    0.0000 R=    0.0000 C=    0.0000
 XYZ=   -1.8560   -2.6311    6.6736 Q=   -0.8200 A=    0.0000 R=    0.0000 C=    0.0000
 XYZ=   -1.0934   -2.0516    6.9615 Q=    0.4100 A=    0.0000 R=    0.0000 C=    0.0000
 XYZ=   -1.9213   -3.4224    7.2816 Q=    0.4100 A=    0.0000 R=    0.0000 C=    0.0000
 XYZ=    2.6600    2.9744    7.3000 Q=   -0.8200 A=    0.0000 R=    0.0000 C=    0.0000
 XYZ=    2.9579    2.2747    6.6506 Q=    0.4100 A=    0.0000 R=    0.0000 C=    0.0000
 XYZ=    1.6862    2.8560    7.4941 Q=    0.4100 A=    0.0000 R=    0.0000 C=    0.0000
 XYZ=    3.7294    7.7521   -2.4206 Q=   -0.8200 A=    0.0000 R=    0.0000 C=    0.0000
 XYZ=    4.5644    7.2268   -2.5843 Q=    0.4100 A=    0.0000 R=    0.0000 C=    0.0000
 XYZ=    2.9753    7.3498   -2.9399 Q=    0.4100 A=    0.0000 R=    0.0000 C=    0.0000
 XYZ=    6.8607    1.4220    3.7918 Q=   -0.8200 A=    0.0000 R=    0.0000 C=    0.0000
 XYZ=    7.1214    0.8078    4.5367 Q=    0.4100 A=    0.0000 R=    0.0000 C=    0.0000
 XYZ=    6.0825    1.9812    4.0779 Q=    0.4100 A=    0.0000 R=    0.0000 C=    0.0000
 XYZ=   -3.7949    8.3895   -1.2801 Q=   -0.8200 A=    0.0000 R=    0.0000 C=    0.0000
 XYZ=   -3.0265    8.7747   -1.7911 Q=    0.4100 A=    0.0000 R=    0.0000 C=    0.0000
 XYZ=   -4.3839    9.1297   -0.9557 Q=    0.4100 A=    0.0000 R=    0.0000 C=    0.0000
 XYZ=   -8.5080    0.2430    0.6135 Q=   -0.8200 A=    0.0000 R=    0.0000 C=    0.0000
 XYZ=   -8.3693    0.5459   -0.3293 Q=    0.4100 A=    0.0000 R=    0.0000 C=    0.0000
 XYZ=   -7.6821   -0.2160    0.9411 Q=    0.4100 A=    0.0000 R=    0.0000 C=    0.0000
 XYZ=    7.2934   -2.3583    4.3915 Q=   -0.8200 A=    0.0000 R=    0.0000 C=    0.0000
 XYZ=    6.9374   -1.7088    3.7196 Q=    0.4100 A=    0.0000 R=    0.0000 C=    0.0000
 XYZ=    6.5361   -2.7328    4.9267 Q=    0.4100 A=    0.0000 R=    0.0000 C=    0.0000
 XYZ=   -0.6004    0.7612    7.7164 Q=   -0.8200 A=    0.0000 R=    0.0000 C=    0.0000
 XYZ=   -0.2437   -0.1344    7.4503 Q=    0.4100 A=    0.0000 R=    0.0000 C=    0.0000
 XYZ=   -1.5615    0.6727    7.9783 Q=    0.4100 A=    0.0000 R=    0.0000 C=    0.0000
 XYZ=    7.9477   -2.4328   -1.1188 Q=   -0.8200 A=    0.0000 R=    0.0000 C=    0.0000
 XYZ=    7.1722   -2.9940   -0.8293 Q=    0.4100 A=    0.0000 R=    0.0000 C=    0.0000
 XYZ=    8.7876   -2.9730   -1.0673 Q=    0.4100 A=    0.0000 R=    0.0000 C=    0.0000
 XYZ=   -5.9651    6.5701    2.3434 Q=   -0.8200 A=    0.0000 R=    0.0000 C=    0.0000
 XYZ=   -6.4146    6.2042    3.1584 Q=    0.4100 A=    0.0000 R=    0.0000 C=    0.0000
 XYZ=   -6.3195    6.1070    1.5310 Q=    0.4100 A=    0.0000 R=    0.0000 C=    0.0000
 XYZ=    0.2293    7.8244    4.2557 Q=   -0.8200 A=    0.0000 R=    0.0000 C=    0.0000
 XYZ=   -0.6693    8.1213    3.9326 Q=    0.4100 A=    0.0000 R=    0.0000 C=    0.0000
 XYZ=    0.1163    7.1018    4.9377 Q=    0.4100 A=    0.0000 R=    0.0000 C=    0.0000
 XYZ=    5.4490    5.3541    3.9881 Q=   -0.8200 A=    0.0000 R=    0.0000 C=    0.0000
 XYZ=    6.1176    5.7056    4.6434 Q=    0.4100 A=    0.0000 R=    0.0000 C=    0.0000
 XYZ=    4.8875    6.1085    3.6478 Q=    0.4100 A=    0.0000 R=    0.0000 C=    0.0000
 XYZ=   -3.9124   -7.8726   -0.8800 Q=   -0.8200 A=    0.0000 R=    0.0000 C=    0.0000
 XYZ=   -4.5239   -8.2030   -0.1610 Q=    0.4100 A=    0.0000 R=    0.0000 C=    0.0000
 XYZ=   -3.8448   -8.5608   -1.6023 Q=    0.4100 A=    0.0000 R=    0.0000 C=    0.0000
 XYZ=   -7.6767    4.8899   -1.5513 Q=   -0.8200 A=    0.0000 R=    0.0000 C=    0.0000
 XYZ=   -7.1002    5.3519   -2.2253 Q=    0.4100 A=    0.0000 R=    0.0000 C=    0.0000
 XYZ=   -7.4279    5.1979   -0.6330 Q=    0.4100 A=    0.0000 R=    0.0000 C=    0.0000
 XYZ=    3.1944    7.2788    5.3602 Q=   -0.8200 A=    0.0000 R=    0.0000 C=    0.0000
 XYZ=    3.3456    6.8800    4.4556 Q=    0.4100 A=    0.0000 R=    0.0000 C=    0.0000
 XYZ=    2.9101    6.5621    5.9971 Q=    0.4100 A=    0.0000 R=    0.0000 C=    0.0000
 XYZ=    2.3669    5.5201    6.9651 Q=   -0.8200 A=    0.0000 R=    0.0000 C=    0.0000
 XYZ=    2.4714    5.6664    7.9488 Q=    0.4100 A=    0.0000 R=    0.0000 C=    0.0000
 XYZ=    2.5543    4.5619    6.7488 Q=    0.4100 A=    0.0000 R=    0.0000 C=    0.0000
 XYZ=   -1.8495    8.5225    3.5160 Q=   -0.8200 A=    0.0000 R=    0.0000 C=    0.0000
 XYZ=   -2.5204    7.8281    3.7763 Q=    0.4100 A=    0.0000 R=    0.0000 C=    0.0000
 XYZ=   -2.3104    9.4011    3.3911 Q=    0.4100 A=    0.0000 R=    0.0000 C=    0.0000
 XYZ=   -5.4443   -5.5730   -4.2083 Q=   -0.8200 A=    0.0000 R=    0.0000 C=    0.0000
 XYZ=   -5.0315   -4.9627   -4.8844 Q=    0.4100 A=    0.0000 R=    0.0000 C=    0.0000
 XYZ=   -6.3427   -5.8700   -4.5319 Q=    0.4100 A=    0.0000 R=    0.0000 C=    0.0000
 XYZ=    7.3495   -5.1162    1.7852 Q=   -0.8200 A=    0.0000 R=    0.0000 C=    0.0000
 XYZ=    6.9649   -4.6259    1.0030 Q=    0.4100 A=    0.0000 R=    0.0000 C=    0.0000
 XYZ=    6.6099   -5.5323    2.3142 Q=    0.4100 A=    0.0000 R=    0.0000 C=    0.0000
 XYZ=    5.1479   -0.3049    6.5140 Q=   -0.8200 A=    0.0000 R=    0.0000 C=    0.0000
 XYZ=    5.2588   -0.0524    7.4752 Q=    0.4100 A=    0.0000 R=    0.0000 C=    0.0000
 XYZ=    6.0479   -0.4046    6.0897 Q=    0.4100 A=    0.0000 R=    0.0000 C=    0.0000
 XYZ=   -2.0089    9.6047   -2.0384 Q=   -0.8200 A=    0.0000 R=    0.0000 C=    0.0000
 XYZ=   -2.3597   10.4026   -1.5482 Q=    0.4100 A=    0.0000 R=    0.0000 C=    0.0000
 XYZ=   -1.0413    9.4781   -1.8199 Q=    0.4100 A=    0.0000 R=    0.0000 C=    0.0000
 XYZ=   -5.3642   -4.9734    4.3220 Q=   -0.8200 A=    0.0000 R=    0.0000 C=    0.0000
 XYZ=   -6.0953   -5.1869    3.6741 Q=    0.4100 A=    0.0000 R=    0.0000 C=    0.0000
 XYZ=   -5.1752   -3.9916    4.2995 Q=    0.4100 A=    0.0000 R=    0.0000 C=    0.0000
 XYZ=   -6.9457   -1.5585    3.9655 Q=   -0.8200 A=    0.0000 R=    0.0000 C=    0.0000
 XYZ=   -6.8565   -1.0865    3.0885 Q=    0.4100 A=    0.0000 R=    0.0000 C=    0.0000
 XYZ=   -7.7257   -2.1833    3.9299 Q=    0.4100 A=    0.0000 R=    0.0000 C=    0.0000
 XYZ=    1.8750   -7.0747    4.2439 Q=   -0.8200 A=    0.0000 R=    0.0000 C=    0.0000
 XYZ=    1.0851   -7.1056    4.8564 Q=    0.4100 A=    0.0000 R=    0.0000 C=    0.0000
 XYZ=    1.7527   -7.7413    3.5085 Q=    0.4100 A=    0.0000 R=    0.0000 C=    0.0000
 XYZ=   -2.3236    6.1849    6.5159 Q=   -0.8200 A=    0.0000 R=    0.0000 C=    0.0000
 XYZ=   -2.6375    6.5938    5.6589 Q=    0.4100 A=    0.0000 R=    0.0000 C=    0.0000
 XYZ=   -1.6060    5.5158    6.3228 Q=    0.4100 A=    0.0000 R=    0.0000 C=    0.0000
 XYZ=   -8.5156    1.9443    2.1570 Q=   -0.8200 A=    0.0000 R=    0.0000 C=    0.0000
 XYZ=   -7.5281    2.0678    2.0584 Q=    0.4100 A=    0.0000 R=    0.0000 C=    0.0000
 XYZ=   -8.8281    1.2376    1.5222 Q=    0.4100 A=    0.0000 R=    0.0000 C=    0.0000
 XYZ=    0.0246    5.0204    7.0779 Q=   -0.8200 A=    0.0000 R=    0.0000 C=    0.0000
 XYZ=    0.9803    5.2575    6.9032 Q=    0.4100 A=    0.0000 R=    0.0000 C=    0.0000
 XYZ=   -0.0298    4.0784    7.4090 Q=    0.4100 A=    0.0000 R=    0.0000 C=    0.0000
 XYZ=    1.6994   -4.5560    7.8740 Q=   -0.8200 A=    0.0000 R=    0.0000 C=    0.0000
 XYZ=    2.2357   -4.3269    7.0616 Q=    0.4100 A=    0.0000 R=    0.0000 C=    0.0000
 XYZ=    2.2857   -5.0143    8.5421 Q=    0.4100 A=    0.0000 R=    0.0000 C=    0.0000
 XYZ=   -0.4683    9.6628    1.7622 Q=   -0.8200 A=    0.0000 R=    0.0000 C=    0.0000
 XYZ=   -1.1284    9.1393    2.3010 Q=    0.4100 A=    0.0000 R=    0.0000 C=    0.0000
 XYZ=   -0.8970   10.5059    1.4376 Q=    0.4100 A=    0.0000 R=    0.0000 C=    0.0000
 XYZ=    8.1765   -1.1699    1.0932 Q=   -0.8200 A=    0.0000 R=    0.0000 C=    0.0000
 XYZ=    8.2188   -1.6933    0.2422 Q=    0.4100 A=    0.0000 R=    0.0000 C=    0.0000
 XYZ=    8.6015   -1.6963    1.8297 Q=    0.4100 A=    0.0000 R=    0.0000 C=    0.0000
 XYZ=   -5.6790   -0.0248    5.3123 Q=   -0.8200 A=    0.0000 R=    0.0000 C=    0.0000
 XYZ=   -6.3002   -0.7373    4.9859 Q=    0.4100 A=    0.0000 R=    0.0000 C=    0.0000
 XYZ=   -4.7662   -0.4122    5.4422 Q=    0.4100 A=    0.0000 R=    0.0000 C=    0.0000
 XYZ=    1.9956    6.3394   -6.1172 Q=   -0.8200 A=    0.0000 R=    0.0000 C=    0.0000
 XYZ=    1.7269    6.8416   -6.9392 Q=    0.4100 A=    0.0000 R=    0.0000 C=    0.0000
 XYZ=    2.7530    5.7239   -6.3354 Q=    0.4100 A=    0.0000 R=    0.0000 C=    0.0000
 XYZ=    4.5457    7.9350   -0.1779 Q=   -0.8200 A=    0.0000 R=    0.0000 C=    0.0000
 XYZ=    3.8848    8.1939    0.5265 Q=    0.4100 A=    0.0000 R=    0.0000 C=    0.0000
 XYZ=    4.1138    7.9940   -1.0780 Q=    0.4100 A=    0.0000 R=    0.0000 C=    0.0000
 XYZ=   -4.1020   -7.5797   -4.7296 Q=   -0.8200 A=    0.0000 R=    0.0000 C=    0.0000
 XYZ=   -4.3704   -6.6582   -4.4490 Q=    0.4100 A=    0.0000 R=    0.0000 C=    0.0000
 XYZ=   -4.9064   -8.0764   -5.0555 Q=    0.4100 A=    0.0000 R=    0.0000 C=    0.0000
 XYZ=   -4.3942   -7.9028    2.5708 Q=   -0.8200 A=    0.0000 R=    0.0000 C=    0.0000
 XYZ=   -3.9963   -7.1770    3.1319 Q=    0.4100 A=    0.0000 R=    0.0000 C=    0.0000
 XYZ=   -3.8737   -8.7470    2.6998 Q=    0.4100 A=    0.0000 R=    0.0000 C=    0.0000
 XYZ=   -2.4075    9.5324   -4.3477 Q=   -0.8200 A=    0.0000 R=    0.0000 C=    0.0000
 XYZ=   -2.2884    9.7203   -3.3728 Q=    0.4100 A=    0.0000 R=    0.0000 C=    0.0000
 XYZ=   -2.1363    8.5894   -4.5409 Q=    0.4100 A=    0.0000 R=    0.0000 C=    0.0000
 XYZ=    0.4219    2.8204    8.3008 Q=   -0.8200 A=    0.0000 R=    0.0000 C=    0.0000
 XYZ=   -0.0393    1.9669    8.0581 Q=    0.4100 A=    0.0000 R=    0.0000 C=    0.0000
 XYZ=    0.5219    2.8743    9.2943 Q=    0.4100 A=    0.0000 R=    0.0000 C=    0.0000
 XYZ=    4.3887    0.6224   -7.5170 Q=   -0.8200 A=    0.0000 R=    0.0000 C=    0.0000
 XYZ=    4.4290    1.3239   -8.2287 Q=    0.4100 A=    0.0000 R=    0.0000 C=    0.0000
 XYZ=    3.5092    0.6774   -7.0444 Q=    0.4100 A=    0.0000 R=    0.0000 C=    0.0000
 XYZ=    6.1896   -3.7097   -3.7783 Q=   -0.8200 A=    0.0000 R=    0.0000 C=    0.0000
 XYZ=    6.5003   -2.8265   -4.1297 Q=    0.4100 A=    0.0000 R=    0.0000 C=    0.0000
 XYZ=    5.7308   -4.2161   -4.5084 Q=    0.4100 A=    0.0000 R=    0.0000 C=    0.0000
 XYZ=    6.2288   -5.5350   -2.0339 Q=   -0.8200 A=    0.0000 R=    0.0000 C=    0.0000
 XYZ=    6.8761   -6.2427   -2.3173 Q=    0.4100 A=    0.0000 R=    0.0000 C=    0.0000
 XYZ=    6.3658   -4.7158   -2.5908 Q=    0.4100 A=    0.0000 R=    0.0000 C=    0.0000
 XYZ=   -8.4708    2.9435   -2.4642 Q=   -0.8200 A=    0.0000 R=    0.0000 C=    0.0000
 XYZ=   -9.4658    2.8652   -2.4021 Q=    0.4100 A=    0.0000 R=    0.0000 C=    0.0000
 XYZ=   -8.1640    3.7282   -1.9255 Q=    0.4100 A=    0.0000 R=    0.0000 C=    0.0000
 XYZ=   -0.4777   -6.7339    5.3864 Q=   -0.8200 A=    0.0000 R=    0.0000 C=    0.0000
 XYZ=   -0.1820   -6.3077    6.2414 Q=    0.4100 A=    0.0000 R=    0.0000 C=    0.0000
 XYZ=   -1.3544   -7.1935    5.5288 Q=    0.4100 A=    0.0000 R=    0.0000 C=    0.0000
 XYZ=   -0.8243   -9.5386    2.2470 Q=   -0.8200 A=    0.0000 R=    0.0000 C=    0.0000
 XYZ=    0.0466   -9.1396    2.5340 Q=    0.4100 A=    0.0000 R=    0.0000 C=    0.0000
 XYZ=   -1.0859   -9.1632    1.3578 Q=    0.4100 A=    0.0000 R=    0.0000 C=    0.0000
 XYZ=    8.2427    3.6203    1.0826 Q=   -0.8200 A=    0.0000 R=    0.0000 C=    0.0000
 XYZ=    7.5142    4.2248    1.4048 Q=    0.4100 A=    0.0000 R=    0.0000 C=    0.0000
 XYZ=    7.8822    3.0110    0.3764 Q=    0.4100 A=    0.0000 R=    0.0000 C=    0.0000
 XYZ=   -0.3875    5.4456   -8.4046 Q=   -0.8200 A=    0.0000 R=    0.0000 C=    0.0000
 XYZ=   -0.3051    5.6892   -7.4382 Q=    0.4100 A=    0.0000 R=    0.0000 C=    0.0000
 XYZ=   -1.0544    6.0473   -8.8442 Q=    0.4100 A=    0.0000 R=    0.0000 C=    0.0000
 XYZ=    5.6079    6.2043   -2.6625 Q=   -0.8200 A=    0.0000 R=    0.0000 C=    0.0000
 XYZ=    6.0364    6.9061   -2.0935 Q=    0.4100 A=    0.0000 R=    0.0000 C=    0.0000
 XYZ=    6.2943    5.5288   -2.9318 Q=    0.4100 A=    0.0000 R=    0.0000 C=    0.0000
 XYZ=   -5.6540   -7.8273    0.7196 Q=   -0.8200 A=    0.0000 R=    0.0000 C=    0.0000
 XYZ=   -5.9405   -6.8694    0.7034 Q=    0.4100 A=    0.0000 R=    0.0000 C=    0.0000
 XYZ=   -5.0116   -7.9704    1.4726 Q=    0.4100 A=    0.0000 R=    0.0000 C=    0.0000
 XYZ=    8.8713    0.8644    0.2570 Q=   -0.8200 A=    0.0000 R=    0.0000 C=    0.0000
 XYZ=    8.1188    1.3531   -0.1846 Q=    0.4100 A=    0.0000 R=    0.0000 C=    0.0000
 XYZ=    8.5263    0.0179    0.6626 Q=    0.4100 A=    0.0000 R=    0.0000 C=    0.0000
 XYZ=    8.4084   -3.1443    2.5421 Q=   -0.8200 A=    0.0000 R=    0.0000 C=    0.0000
 XYZ=    8.0955   -2.8306    3.4386 Q=    0.4100 A=    0.0000 R=    0.0000 C=    0.0000
 XYZ=    7.7837   -3.8449    2.1974 Q=    0.4100 A=    0.0000 R=    0.0000 C=    0.0000
 XYZ=   -4.9251   -4.6998   -6.3848 Q=   -0.8200 A=    0.0000 R=    0.0000 C=    0.0000
 XYZ=   -4.5556   -4.0424   -7.0415 Q=    0.4100 A=    0.0000 R=    0.0000 C=    0.0000
 XYZ=   -5.7167   -5.1617   -6.7850 Q=    0.4100 A=    0.0000 R=    0.0000 C=    0.0000
 XYZ=    2.1225    9.7267   -2.3100 Q=   -0.8200 A=    0.0000 R=    0.0000 C=    0.0000
 XYZ=    1.7777    9.7830   -3.2469 Q=    0.4100 A=    0.0000 R=    0.0000 C=    0.0000
 XYZ=    2.8448    9.0368   -2.2615 Q=    0.4100 A=    0.0000 R=    0.0000 C=    0.0000
 XYZ=   -6.7396    5.6323    4.4472 Q=   -0.8200 A=    0.0000 R=    0.0000 C=    0.0000
 XYZ=   -6.1085    4.8738    4.6103 Q=    0.4100 A=    0.0000 R=    0.0000 C=    0.0000
 XYZ=   -6.3642    6.4695    4.8449 Q=    0.4100 A=    0.0000 R=    0.0000 C=    0.0000
 XYZ=   -4.4515    4.0146   -8.0861 Q=   -0.8200 A=    0.0000 R=    0.0000 C=    0.0000
 XYZ=   -4.1746    4.6032   -8.8456 Q=    0.4100 A=    0.0000 R=    0.0000 C=    0.0000
 XYZ=   -3.9902    3.1308   -8.1641 Q=    0.4100 A=    0.0000 R=    0.0000 C=    0.0000
 XYZ=   -2.9286   -7.0820    5.8151 Q=   -0.8200 A=    0.0000 R=    0.0000 C=    0.0000
 XYZ=   -3.2652   -6.5816    5.0174 Q=    0.4100 A=    0.0000 R=    0.0000 C=    0.0000
 XYZ=   -3.2393   -6.6267    6.6496 Q=    0.4100 A=    0.0000 R=    0.0000 C=    0.0000
 XYZ=   -8.1241    3.0287   -4.7158 Q=   -0.8200 A=    0.0000 R=    0.0000 C=    0.0000
 XYZ=   -8.3200    3.0862   -3.7368 Q=    0.4100 A=    0.0000 R=    0.0000 C=    0.0000
 XYZ=   -8.9592    2.7849   -5.2090 Q=    0.4100 A=    0.0000 R=    0.0000 C=    0.0000
 XYZ=   -7.1958   -5.2574    2.9938 Q=   -0.8200 A=    0.0000 R=    0.0000 C=    0.0000
 XYZ=   -6.9740   -5.2556    2.0187 Q=    0.4100 A=    0.0000 R=    0.0000 C=    0.0000
 XYZ=   -7.7148   -6.0828    3.2161 Q=    0.4100 A=    0.0000 R=    0.0000 C=    0.0000
 XYZ=    7.2640   -0.2484    5.4777 Q=   -0.8200 A=    0.0000 R=    0.0000 C=    0.0000
 XYZ=    7.9036    0.1339    6.1446 Q=    0.4100 A=    0.0000 R=    0.0000 C=    0.0000
 XYZ=    7.5857   -1.1492    5.1859 Q=    0.4100 A=    0.0000 R=    0.0000 C=    0.0000
 XYZ=   -1.2584    3.3502   -9.0066 Q=   -0.8200 A=    0.0000 R=    0.0000 C=    0.0000
 XYZ=   -2.2051    3.1843   -8.7305 Q=    0.4100 A=    0.0000 R=    0.0000 C=    0.0000
 XYZ=   -0.9456    4.2178   -8.6201 Q=    0.4100 A=    0.0000 R=    0.0000 C=    0.0000
 XYZ=    8.8220    2.2424    2.8625 Q=   -0.8200 A=    0.0000 R=    0.0000 C=    0.0000
 XYZ=    8.6274    2.7514    2.0240 Q=    0.4100 A=    0.0000 R=    0.0000 C=    0.0000
 XYZ=    7.9655    1.9085    3.2560 Q=    0.4100 A=    0.0000 R=    0.0000 C=    0.0000
 XYZ=   -4.1625   -3.1916   -8.1431 Q=   -0.8200 A=    0.0000 R=    0.0000 C=    0.0000
 XYZ=   -3.9855   -3.7756   -8.9353 Q=    0.4100 A=    0.0000 R=    0.0000 C=    0.0000
 XYZ=   -4.6648   -2.3775   -8.4348 Q=    0.4100 A=    0.0000 R=    0.0000 C=    0.0000
 XYZ=   -5.5313    9.0069    2.1479 Q=   -0.8200 A=    0.0000 R=    0.0000 C=    0.0000
 XYZ=   -5.8773    8.0695    2.1874 Q=    0.4100 A=    0.0000 R=    0.0000 C=    0.0000
 XYZ=   -5.3294    9.3269    3.0736 Q=    0.4100 A=    0.0000 R=    0.0000 C=    0.0000
 XYZ=    1.9594    9.1680    4.8176 Q=   -0.8200 A=    0.0000 R=    0.0000 C=    0.0000
 XYZ=    2.6714    8.5507    5.1524 Q=    0.4100 A=    0.0000 R=    0.0000 C=    0.0000
 XYZ=    1.1468    8.6384    4.5739 Q=    0.4100 A=    0.0000 R=    0.0000 C=    0.0000
 XYZ=   -0.1177   -5.7545    7.5605 Q=   -0.8200 A=    0.0000 R=    0.0000 C=    0.0000
 XYZ=    0.6944   -5.1743    7.6236 Q=    0.4100 A=    0.0000 R=    0.0000 C=    0.0000
 XYZ=   -0.9219   -5.2346    7.8482 Q=    0.4100 A=    0.0000 R=    0.0000 C=    0.0000
 XYZ=    8.6383   -0.7473   -3.1739 Q=   -0.8200 A=    0.0000 R=    0.0000 C=    0.0000
 XYZ=    9.6314   -0.6562   -3.1007 Q=    0.4100 A=    0.0000 R=    0.0000 C=    0.0000
 XYZ=    8.2951   -1.2838   -2.4029 Q=    0.4100 A=    0.0000 R=    0.0000 C=    0.0000
 XYZ=  -10.3448    0.3360   -2.7759 Q=   -0.8200 A=    0.0000 R=    0.0000 C=    0.0000
 XYZ=  -10.6989    1.2708   -2.8045 Q=    0.4100 A=    0.0000 R=    0.0000 C=    0.0000
 XYZ=   -9.4368    0.3363   -2.3569 Q=    0.4100 A=    0.0000 R=    0.0000 C=    0.0000
 XYZ=    7.6875    2.5682   -2.8773 Q=   -0.8200 A=    0.0000 R=    0.0000 C=    0.0000
 XYZ=    7.5644    3.5120   -3.1844 Q=    0.4100 A=    0.0000 R=    0.0000 C=    0.0000
 XYZ=    7.7511    1.9646   -3.6721 Q=    0.4100 A=    0.0000 R=    0.0000 C=    0.0000
 XYZ=    0.8433   -6.4065   -8.1543 Q=   -0.8200 A=    0.0000 R=    0.0000 C=    0.0000
 XYZ=    1.1449   -5.6222   -7.6120 Q=    0.4100 A=    0.0000 R=    0.0000 C=    0.0000
 XYZ=    0.0496   -6.8289   -7.7166 Q=    0.4100 A=    0.0000 R=    0.0000 C=    0.0000
 XYZ=    1.8229   10.0115    2.5818 Q=   -0.8200 A=    0.0000 R=    0.0000 C=    0.0000
 XYZ=    0.8853    9.9033    2.2511 Q=    0.4100 A=    0.0000 R=    0.0000 C=    0.0000
 XYZ=    1.8824    9.6886    3.5264 Q=    0.4100 A=    0.0000 R=    0.0000 C=    0.0000
 XYZ=    5.8941   -0.0599   -5.7054 Q=   -0.8200 A=    0.0000 R=    0.0000 C=    0.0000
 XYZ=    5.2551    0.2925   -6.3892 Q=    0.4100 A=    0.0000 R=    0.0000 C=    0.0000
 XYZ=    6.4469    0.6923   -5.3469 Q=    0.4100 A=    0.0000 R=    0.0000 C=    0.0000
 XYZ=    7.2051   -1.8461   -4.9106 Q=   -0.8200 A=    0.0000 R=    0.0000 C=    0.0000
 XYZ=    7.8225   -1.4463   -4.2331 Q=    0.4100 A=    0.0000 R=    0.0000 C=    0.0000
 XYZ=    6.5179   -1.1696   -5.1756 Q=    0.4100 A=    0.0000 R=    0.0000 C=    0.0000
 XYZ=   -0.9815  -10.0472   -0.9724 Q=   -0.8200 A=    0.0000 R=    0.0000 C=    0.0000
 XYZ=   -0.3542  -10.7518   -0.6408 Q=    0.4100 A=    0.0000 R=    0.0000 C=    0.0000
 XYZ=   -1.4490  -10.3765   -1.7929 Q=    0.4100 A=    0.0000 R=    0.0000 C=    0.0000
 XYZ=   -3.9559   -9.4165   -2.8686 Q=   -0.8200 A=    0.0000 R=    0.0000 C=    0.0000
 XYZ=   -4.7837   -9.9619   -2.9999 Q=    0.4100 A=    0.0000 R=    0.0000 C=    0.0000
 XYZ=   -3.9715   -8.6323   -3.4890 Q=    0.4100 A=    0.0000 R=    0.0000 C=    0.0000
 XYZ=    0.1928   -1.1856  -10.4392 Q=   -0.8200 A=    0.0000 R=    0.0000 C=    0.0000
 XYZ=    0.2693   -2.0282  -10.9723 Q=    0.4100 A=    0.0000 R=    0.0000 C=    0.0000
 XYZ=   -0.0761   -1.4076   -9.5019 Q=    0.4100 A=    0.0000 R=    0.0000 C=    0.0000
 XYZ=   -3.5529   -6.6718   -6.8491 Q=   -0.8200 A=    0.0000 R=    0.0000 C=    0.0000
 XYZ=   -4.0768   -5.8202   -6.8314 Q=    0.4100 A=    0.0000 R=    0.0000 C=    0.0000
 XYZ=   -3.8551   -7.2646   -6.1027 Q=    0.4100 A=    0.0000 R=    0.0000 C=    0.0000
 XYZ=   -1.3176   -7.3114   -7.3880 Q=   -0.8200 A=    0.0000 R=    0.0000 C=    0.0000
 XYZ=   -1.5639   -7.4146   -8.3517 Q=    0.4100 A=    0.0000 R=    0.0000 C=    0.0000
 XYZ=   -2.1109   -6.9844   -6.8744 Q=    0.4100 A=    0.0000 R=    0.0000 C=    0.0000
 XYZ=   -8.9948    4.1145    1.5523 Q=   -0.8200 A=    0.0000 R=    0.0000 C=    0.0000
 XYZ=   -9.9012    4.2636    1.1571 Q=    0.4100 A=    0.0000 R=    0.0000 C=    0.0000
 XYZ=   -8.8563    3.1366    1.7089 Q=    0.4100 A=    0.0000 R=    0.0000 C=    0.0000
 XYZ=   -3.8760    0.1680   -9.4233 Q=   -0.8200 A=    0.0000 R=    0.0000 C=    0.0000
 XYZ=   -4.6312   -0.4194   -9.1323 Q=    0.4100 A=    0.0000 R=    0.0000 C=    0.0000
 XYZ=   -3.6117   -0.0676  -10.3585 Q=    0.4100 A=    0.0000 R=    0.0000 C=    0.0000
 XYZ=    0.7944   -2.5015    9.2567 Q=   -0.8200 A=    0.0000 R=    0.0000 C=    0.0000
 XYZ=    1.3903   -3.1999    8.8603 Q=    0.4100 A=    0.0000 R=    0.0000 C=    0.0000
 XYZ=    0.0099   -2.9416    9.6936 Q=    0.4100 A=    0.0000 R=    0.0000 C=    0.0000
 XYZ=  -10.2495   -1.3759    0.7045 Q=   -0.8200 A=    0.0000 R=    0.0000 C=    0.0000
 XYZ=   -9.4814   -0.7422    0.7962 Q=    0.4100 A=    0.0000 R=    0.0000 C=    0.0000
 XYZ=   -9.9908   -2.2687    1.0731 Q=    0.4100 A=    0.0000 R=    0.0000 C=    0.0000
 XYZ=    3.8574    3.4093    9.1835 Q=   -0.8200 A=    0.0000 R=    0.0000 C=    0.0000
 XYZ=    4.8275    3.5246    8.9696 Q=    0.4100 A=    0.0000 R=    0.0000 C=    0.0000
 XYZ=    3.3484    3.2367    8.3402 Q=    0.4100 A=    0.0000 R=    0.0000 C=    0.0000
 XYZ=    1.2041    9.8700   -4.5811 Q=   -0.8200 A=    0.0000 R=    0.0000 C=    0.0000
 XYZ=    0.4934   10.4318   -5.0046 Q=    0.4100 A=    0.0000 R=    0.0000 C=    0.0000
 XYZ=    1.4704    9.1395   -5.2100 Q=    0.4100 A=    0.0000 R=    0.0000 C=    0.0000
 XYZ=    6.4933    7.9684   -1.4260 Q=   -0.8200 A=    0.0000 R=    0.0000 C=    0.0000
 XYZ=    5.6900    8.1463   -0.8575 Q=    0.4100 A=    0.0000 R=    0.0000 C=    0.0000
 XYZ=    7.3214    8.1946   -0.9130 Q=    0.4100 A=    0.0000 R=    0.0000 C=    0.0000
 XYZ=   -5.0565    3.4607    6.9473 Q=   -0.8200 A=    0.0000 R=    0.0000 C=    0.0000
 XYZ=   -5.1523    2.8943    7.7659 Q=    0.4100 A=    0.0000 R=    0.0000 C=    0.0000
 XYZ=   -4.8030    4.3907    7.2133 Q=    0.4100 A=    0.0000 R=    0.0000 C=    0.0000
 XYZ=    8.4350    6.6985    1.6191 Q=   -0.8200 A=    0.0000 R=    0.0000 C=    0.0000
 XYZ=    7.5680    6.2222    1.7657 Q=    0.4100 A=    0.0000 R=    0.0000 C=    0.0000
 XYZ=    9.1732    6.0290    1.5366 Q=    0.4100 A=    0.0000 R=    0.0000 C=    0.0000
 XYZ=   -0.7695    5.8005    9.1537 Q=   -0.8200 A=    0.0000 R=    0.0000 C=    0.0000
 XYZ=   -1.0713    6.7410    8.9975 Q=    0.4100 A=    0.0000 R=    0.0000 C=    0.0000
 XYZ=   -0.5166    5.3824    8.2812 Q=    0.4100 A=    0.0000 R=    0.0000 C=    0.0000
 XYZ=   -4.1682    5.5687    7.5622 Q=   -0.8200 A=    0.0000 R=    0.0000 C=    0.0000
 XYZ=   -4.7923    6.3491    7.6022 Q=    0.4100 A=    0.0000 R=    0.0000 C=    0.0000
 XYZ=   -3.3157    5.8461    7.1191 Q=    0.4100 A=    0.0000 R=    0.0000 C=    0.0000
 XYZ=   -1.9920   -4.5533    8.0750 Q=   -0.8200 A=    0.0000 R=    0.0000 C=    0.0000
 XYZ=   -2.8017   -5.1026    7.8686 Q=    0.4100 A=    0.0000 R=    0.0000 C=    0.0000
 XYZ=   -2.0221   -4.2613    9.0310 Q=    0.4100 A=    0.0000 R=    0.0000 C=    0.0000
 XYZ=    7.3056    4.7012   -3.7307 Q=   -0.8200 A=    0.0000 R=    0.0000 C=    0.0000
 XYZ=    8.1717    5.0474   -3.3703 Q=    0.4100 A=    0.0000 R=    0.0000 C=    0.0000
 XYZ=    7.2620    4.8723   -4.7150 Q=    0.4100 A=    0.0000 R=    0.0000 C=    0.0000
 XYZ=    6.7911    2.9735    6.3632 Q=   -0.8200 A=    0.0000 R=    0.0000 C=    0.0000
 XYZ=    7.6944    3.3380    6.1365 Q=    0.4100 A=    0.0000 R=    0.0000 C=    0.0000
 XYZ=    6.5148    3.3049    7.2653 Q=    0.4100 A=    0.0000 R=    0.0000 C=    0.0000
 XYZ=   -4.5993   10.4977    0.6114 Q=   -0.8200 A=    0.0000 R=    0.0000 C=    0.0000
 XYZ=   -5.2896   10.7483   -0.0674 Q=    0.4100 A=    0.0000 R=    0.0000 C=    0.0000
 XYZ=   -5.0021    9.8747    1.2821 Q=    0.4100 A=    0.0000 R=    0.0000 C=    0.0000
 XYZ=   -3.0977   -9.6583    3.1127 Q=   -0.8200 A=    0.0000 R=    0.0000 C=    0.0000
 XYZ=   -3.5943  -10.5238    3.0460 Q=    0.4100 A=    0.0000 R=    0.0000 C=    0.0000
 XYZ=   -2.1862   -9.7657    2.7156 Q=    0.4100 A=    0.0000 R=    0.0000 C=    0.0000
 XYZ=    7.6915    0.9353   -4.7577 Q=   -0.8200 A=    0.0000 R=    0.0000 C=    0.0000
 XYZ=    8.3311    1.0027   -5.5235 Q=    0.4100 A=    0.0000 R=    0.0000 C=    0.0000
 XYZ=    8.0940    0.3724   -4.0358 Q=    0.4100 A=    0.0000 R=    0.0000 C=    0.0000
 XYZ=    8.6920   -4.2078   -3.2163 Q=   -0.8200 A=    0.0000 R=    0.0000 C=    0.0000
 XYZ=    7.8547   -3.8449   -3.6253 Q=    0.4100 A=    0.0000 R=    0.0000 C=    0.0000
 XYZ=    9.4528   -4.0902   -3.8545 Q=    0.4100 A=    0.0000 R=    0.0000 C=    0.0000
 XYZ=   -8.0423    5.0050   -6.0958 Q=   -0.8200 A=    0.0000 R=    0.0000 C=    0.0000
 XYZ=   -7.5070    4.7479   -6.9005 Q=    0.4100 A=    0.0000 R=    0.0000 C=    0.0000
 XYZ=   -8.0492    4.2467   -5.4439 Q=    0.4100 A=    0.0000 R=    0.0000 C=    0.0000
 XYZ=   -5.7819   -5.1652    6.7292 Q=   -0.8200 A=    0.0000 R=    0.0000 C=    0.0000
 XYZ=   -5.5476   -5.1813    5.7571 Q=    0.4100 A=    0.0000 R=    0.0000 C=    0.0000
 XYZ=   -5.9176   -4.2192    7.0236 Q=    0.4100 A=    0.0000 R=    0.0000 C=    0.0000
 XYZ=   -6.6061    1.4683    6.9201 Q=   -0.8200 A=    0.0000 R=    0.0000 C=    0.0000
 XYZ=   -6.4054    0.6919    6.3226 Q=    0.4100 A=    0.0000 R=    0.0000 C=    0.0000
 XYZ=   -6.0592    2.2564    6.6375 Q=    0.4100 A=    0.0000 R=    0.0000 C=    0.0000
 XYZ=    9.7091    1.9071   -1.7752 Q=   -0.8200 A=    0.0000 R=    0.0000 C=    0.0000
 XYZ=    8.8254    2.0828   -2.2090 Q=    0.4100 A=    0.0000 R=    0.0000 C=    0.0000
 XYZ=    9.5686    1.3937   -0.9286 Q=    0.4100 A=    0.0000 R=    0.0000 C=    0.0000
 XYZ=   -2.8725   11.3327   -0.8284 Q=   -0.8200 A=    0.0000 R=    0.0000 C=    0.0000
 XYZ=   -3.3148   12.0621   -1.3504 Q=    0.4100 A=    0.0000 R=    0.0000 C=    0.0000
 XYZ=   -3.5496   10.8809   -0.2476 Q=    0.4100 A=    0.0000 R=    0.0000 C=    0.0000
 XYZ=   -8.7176   -3.4819    3.7811 Q=   -0.8200 A=    0.0000 R=    0.0000 C=    0.0000
 XYZ=   -8.0178   -4.1112    3.4430 Q=    0.4100 A=    0.0000 R=    0.0000 C=    0.0000
 XYZ=   -9.1683   -3.8822    4.5790 Q=    0.4100 A=    0.0000 R=    0.0000 C=    0.0000
 XYZ=   -6.6588    4.3342   -8.2669 Q=   -0.8200 A=    0.0000 R=    0.0000 C=    0.0000
 XYZ=   -6.9130    5.2993   -8.3303 Q=    0.4100 A=    0.0000 R=    0.0000 C=    0.0000
 XYZ=   -5.6691    4.2575   -8.1454 Q=    0.4100 A=    0.0000 R=    0.0000 C=    0.0000
 XYZ=   -0.7701   11.1900   -5.1417 Q=   -0.8200 A=    0.0000 R=    0.0000 C=    0.0000
 XYZ=   -1.0972   12.0567   -4.7652 Q=    0.4100 A=    0.0000 R=    0.0000 C=    0.0000
 XYZ=   -1.3114   10.4379   -4.7658 Q=    0.4100 A=    0.0000 R=    0.0000 C=    0.0000
 XYZ=   -1.9089    7.7420    8.1947 Q=   -0.8200 A=    0.0000 R=    0.0000 C=    0.0000
 XYZ=   -1.9946    7.2218    7.3449 Q=    0.4100 A=    0.0000 R=    0.0000 C=    0.0000
 XYZ=   -2.7952    7.7740    8.6566 Q=    0.4100 A=    0.0000 R=    0.0000 C=    0.0000
 XYZ=   -8.3429   -6.0911   -0.7500 Q=   -0.8200 A=    0.0000 R=    0.0000 C=    0.0000
 XYZ=   -8.4697   -6.2937   -1.7211 Q=    0.4100 A=    0.0000 R=    0.0000 C=    0.0000
 XYZ=   -9.2214   -5.8376   -0.3450 Q=    0.4100 A=    0.0000 R=    0.0000 C=    0.0000
 XYZ=   -7.6205   -8.4975   -0.2705 Q=   -0.8200 A=    0.0000 R=    0.0000 C=    0.0000
 XYZ=   -8.1063   -7.6260   -0.3391 Q=    0.4100 A=    0.0000 R=    0.0000 C=    0.0000
 XYZ=   -6.6825   -8.3330    0.0347 Q=    0.4100 A=    0.0000 R=    0.0000 C=    0.0000
 XYZ=   -5.5478    7.5535    5.3326 Q=   -0.8200 A=    0.0000 R=    0.0000 C=    0.0000
 XYZ=   -5.5936    8.5031    5.0224 Q=    0.4100 A=    0.0000 R=    0.0000 C=    0.0000
 XYZ=   -5.5671    7.5281    6.3321 Q=    0.4100 A=    0.0000 R=    0.0000 C=    0.0000
 XYZ=    9.5461   -6.0055    1.3534 Q=   -0.8200 A=    0.0000 R=    0.0000 C=    0.0000
 XYZ=   10.1095   -5.1910    1.4920 Q=    0.4100 A=    0.0000 R=    0.0000 C=    0.0000
 XYZ=    8.5796   -5.7572    1.4190 Q=    0.4100 A=    0.0000 R=    0.0000 C=    0.0000
 XYZ=   -9.0738    5.3579    3.6884 Q=   -0.8200 A=    0.0000 R=    0.0000 C=    0.0000
 XYZ=   -9.0649    4.9142    2.7923 Q=    0.4100 A=    0.0000 R=    0.0000 C=    0.0000
 XYZ=   -8.1358    5.5634    3.9678 Q=    0.4100 A=    0.0000 R=    0.0000 C=    0.0000
 XYZ=   -2.1008  -10.9105   -2.8260 Q=   -0.8200 A=    0.0000 R=    0.0000 C=    0.0000
 XYZ=   -1.8461  -11.1645   -3.7591 Q=    0.4100 A=    0.0000 R=    0.0000 C=    0.0000
 XYZ=   -2.9158  -10.3313   -2.8489 Q=    0.4100 A=    0.0000 R=    0.0000 C=    0.0000
 XYZ=   10.4764   -3.6345    1.3780 Q=   -0.8200 A=    0.0000 R=    0.0000 C=    0.0000
 XYZ=    9.6102   -3.4766    1.8523 Q=    0.4100 A=    0.0000 R=    0.0000 C=    0.0000
 XYZ=   10.3118   -3.6898    0.3932 Q=    0.4100 A=    0.0000 R=    0.0000 C=    0.0000
 XYZ=   -1.4120   11.8673    0.9385 Q=   -0.8200 A=    0.0000 R=    0.0000 C=    0.0000
 XYZ=   -2.1372   12.1483    1.5671 Q=    0.4100 A=    0.0000 R=    0.0000 C=    0.0000
 XYZ=   -1.8153   11.5922    0.0658 Q=    0.4100 A=    0.0000 R=    0.0000 C=    0.0000
 XYZ=    6.6976   -3.0535   -6.8729 Q=   -0.8200 A=    0.0000 R=    0.0000 C=    0.0000
 XYZ=    7.0542   -2.6050   -6.0533 Q=    0.4100 A=    0.0000 R=    0.0000 C=    0.0000
 XYZ=    7.4595   -3.3557   -7.4457 Q=    0.4100 A=    0.0000 R=    0.0000 C=    0.0000
 XYZ=    1.5603    5.2288   -9.8609 Q=   -0.8200 A=    0.0000 R=    0.0000 C=    0.0000
 XYZ=    0.7879    5.2712   -9.2271 Q=    0.4100 A=    0.0000 R=    0.0000 C=    0.0000
 XYZ=    2.3804    4.9383   -9.3679 Q=    0.4100 A=    0.0000 R=    0.0000 C=    0.0000
 XYZ=   -5.6827   -1.5533   -9.4474 Q=   -0.8200 A=    0.0000 R=    0.0000 C=    0.0000
 XYZ=   -6.3992   -0.8681   -9.5784 Q=    0.4100 A=    0.0000 R=    0.0000 C=    0.0000
 XYZ=   -5.7603   -2.2562  -10.1545 Q=    0.4100 A=    0.0000 R=    0.0000 C=    0.0000
 XYZ=    9.8706   -3.9582   -0.9755 Q=   -0.8200 A=    0.0000 R=    0.0000 C=    0.0000
 XYZ=   10.7750   -3.8259   -1.3814 Q=    0.4100 A=    0.0000 R=    0.0000 C=    0.0000
 XYZ=    9.2056   -4.1476   -1.6980 Q=    0.4100 A=    0.0000 R=    0.0000 C=    0.0000
 XYZ=   -6.7418   -8.7898    3.3725 Q=   -0.8200 A=    0.0000 R=    0.0000 C=    0.0000
 XYZ=   -6.4197   -9.5477    3.9398 Q=    0.4100 A=    0.0000 R=    0.0000 C=    0.0000
 XYZ=   -5.9802   -8.4300    2.8333 Q=    0.4100 A=    0.0000 R=    0.0000 C=    0.0000
 XYZ=    3.4614    4.5386   -8.7300 Q=   -0.8200 A=    0.0000 R=    0.0000 C=    0.0000
 XYZ=    3.9815    5.0940   -8.0810 Q=    0.4100 A=    0.0000 R=    0.0000 C=    0.0000
 XYZ=    3.9072    3.6503   -8.8405 Q=    0.4100 A=    0.0000 R=    0.0000 C=    0.0000
 XYZ=   10.9378    0.9051    1.2866 Q=   -0.8200 A=    0.0000 R=    0.0000 C=    0.0000
 XYZ=   10.8525    1.1676    2.2478 Q=    0.4100 A=    0.0000 R=    0.0000 C=    0.0000
 XYZ=   10.0277    0.8376    0.8775 Q=    0.4100 A=    0.0000 R=    0.0000 C=    0.0000
 XYZ=    4.8747    5.7344   -7.3472 Q=   -0.8200 A=    0.0000 R=    0.0000 C=    0.0000
 XYZ=    5.5302    5.5844   -6.6071 Q=    0.4100 A=    0.0000 R=    0.0000 C=    0.0000
 XYZ=    5.3519    6.1007   -8.1460 Q=    0.4100 A=    0.0000 R=    0.0000 C=    0.0000
 XYZ=    5.9837    1.0021    8.3653 Q=   -0.8200 A=    0.0000 R=    0.0000 C=    0.0000
 XYZ=    6.7882    0.8835    7.7832 Q=    0.4100 A=    0.0000 R=    0.0000 C=    0.0000
 XYZ=    5.7435    1.9719    8.4082 Q=    0.4100 A=    0.0000 R=    0.0000 C=    0.0000
 XYZ=   -3.7346   -9.1551    5.2790 Q=   -0.8200 A=    0.0000 R=    0.0000 C=    0.0000
 XYZ=   -3.3966   -9.3213    4.3526 Q=    0.4100 A=    0.0000 R=    0.0000 C=    0.0000
 XYZ=   -3.4336   -8.2525    5.5866 Q=    0.4100 A=    0.0000 R=    0.0000 C=    0.0000
 XYZ=   -0.0482   -9.2826   -7.4189 Q=   -0.8200 A=    0.0000 R=    0.0000 C=    0.0000
 XYZ=   -0.5678   -8.4603   -7.1870 Q=    0.4100 A=    0.0000 R=    0.0000 C=    0.0000
 XYZ=   -0.4377   -9.7029   -8.2385 Q=    0.4100 A=    0.0000 R=    0.0000 C=    0.0000
 XYZ=   10.0261    4.9465    1.6538 Q=   -0.8200 A=    0.0000 R=    0.0000 C=    0.0000
 XYZ=   10.1647    4.6194    2.5886 Q=    0.4100 A=    0.0000 R=    0.0000 C=    0.0000
 XYZ=    9.3988    4.3321    1.1752 Q=    0.4100 A=    0.0000 R=    0.0000 C=    0.0000
 XYZ=    7.1865    5.8152    5.6093 Q=   -0.8200 A=    0.0000 R=    0.0000 C=    0.0000
 XYZ=    7.7306    6.6116    5.8733 Q=    0.4100 A=    0.0000 R=    0.0000 C=    0.0000
 XYZ=    7.7756    5.0083    5.5674 Q=    0.4100 A=    0.0000 R=    0.0000 C=    0.0000
 XYZ=    1.7924   -0.9474   10.9747 Q=   -0.8200 A=    0.0000 R=    0.0000 C=    0.0000
 XYZ=    1.4801   -1.4730   10.1834 Q=    0.4100 A=    0.0000 R=    0.0000 C=    0.0000
 XYZ=    1.0748   -0.3103   11.2560 Q=    0.4100 A=    0.0000 R=    0.0000 C=    0.0000
 XYZ=    6.2344    5.7295    7.8731 Q=   -0.8200 A=    0.0000 R=    0.0000 C=    0.0000
 XYZ=    6.9824    6.3185    8.1789 Q=    0.4100 A=    0.0000 R=    0.0000 C=    0.0000
 XYZ=    6.2586    5.6504    6.8765 Q=    0.4100 A=    0.0000 R=    0.0000 C=    0.0000
 XYZ=   -1.3624    3.0744  -11.3164 Q=   -0.8200 A=    0.0000 R=    0.0000 C=    0.0000
 XYZ=   -1.2847    3.3034  -10.3461 Q=    0.4100 A=    0.0000 R=    0.0000 C=    0.0000
 XYZ=   -1.1936    2.0969  -11.4428 Q=    0.4100 A=    0.0000 R=    0.0000 C=    0.0000
 XYZ=  -10.8227   -0.8847   -4.6422 Q=   -0.8200 A=    0.0000 R=    0.0000 C=    0.0000
 XYZ=  -10.4737   -0.4451   -5.4699 Q=    0.4100 A=    0.0000 R=    0.0000 C=    0.0000
 XYZ=  -10.5603   -0.3450   -3.8423 Q=    0.4100 A=    0.0000 R=    0.0000 C=    0.0000
 XYZ=    2.8303   11.9287   -0.9564 Q=   -0.8200 A=    0.0000 R=    0.0000 C=    0.0000
 XYZ=    3.7295   12.3567   -1.0472 Q=    0.4100 A=    0.0000 R=    0.0000 C=    0.0000
 XYZ=    2.7653   11.1533   -1.5845 Q=    0.4100 A=    0.0000 R=    0.0000 C=    0.0000
 XYZ=    2.6567   11.9158    1.6078 Q=   -0.8200 A=    0.0000 R=    0.0000 C=    0.0000
 XYZ=    2.3059   11.0401    1.9396 Q=    0.4100 A=    0.0000 R=    0.0000 C=    0.0000
 XYZ=    2.5497   11.9630    0.6147 Q=    0.4100 A=    0.0000 R=    0.0000 C=    0.0000
 XYZ=    6.2057   -1.2473   -8.2025 Q=   -0.8200 A=    0.0000 R=    0.0000 C=    0.0000
 XYZ=    6.2549   -1.9508   -7.4934 Q=    0.4100 A=    0.0000 R=    0.0000 C=    0.0000
 XYZ=    5.4386   -0.6348   -8.0115 Q=    0.4100 A=    0.0000 R=    0.0000 C=    0.0000
 XYZ=  -10.6640    1.9437    3.2378 Q=   -0.8200 A=    0.0000 R=    0.0000 C=    0.0000
 XYZ=  -10.6989    2.6797    3.9140 Q=    0.4100 A=    0.0000 R=    0.0000 C=    0.0000
 XYZ=   -9.7645    1.9350    2.8009 Q=    0.4100 A=    0.0000 R=    0.0000 C=    0.0000
 XYZ=    8.0905    1.1138    7.4068 Q=   -0.8200 A=    0.0000 R=    0.0000 C=    0.0000
 XYZ=    7.6627    1.8936    6.9496 Q=    0.4100 A=    0.0000 R=    0.0000 C=    0.0000
 XYZ=    8.9220    1.4160    7.8729 Q=    0.4100 A=    0.0000 R=    0.0000 C=    0.0000
 XYZ=    2.6761    5.4885    9.2821 Q=   -0.8200 A=    0.0000 R=    0.0000 C=    0.0000
 XYZ=    2.0944    5.5902   10.0892 Q=    0.4100 A=    0.0000 R=    0.0000 C=    0.0000
 XYZ=    3.1159    4.5905    9.2994 Q=    0.4100 A=    0.0000 R=    0.0000 C=    0.0000
 XYZ=   -5.1110    9.7256    4.3942 Q=   -0.8200 A=    0.0000 R=    0.0000 C=    0.0000
 XYZ=   -5.6101   10.5147    4.7524 Q=    0.4100 A=    0.0000 R=    0.0000 C=    0.0000
 XYZ=   -4.1295    9.8639    4.5267 Q=    0.4100 A=    0.0000 R=    0.0000 C=    0.0000
 XYZ=   -1.1324    0.6677  -11.5064 Q=   -0.8200 A=    0.0000 R=    0.0000 C=    0.0000
 XYZ=   -0.5615    0.0452  -10.9711 Q=    0.4100 A=    0.0000 R=    0.0000 C=    0.0000
 XYZ=   -2.0436    0.2713  -11.6182 Q=    0.4100 A=    0.0000 R=    0.0000 C=    0.0000
 XYZ=   -3.6955   11.3210   -5.5990 Q=   -0.8200 A=    0.0000 R=    0.0000 C=    0.0000
 XYZ=   -3.4164   10.4782   -5.1387 Q=    0.4100 A=    0.0000 R=    0.0000 C=    0.0000
 XYZ=   -3.0591   11.5203   -6.3441 Q=    0.4100 A=    0.0000 R=    0.0000 C=    0.0000
 XYZ=   -2.8896    4.8945    9.5436 Q=   -0.8200 A=    0.0000 R=    0.0000 C=    0.0000
 XYZ=   -1.9322    5.0421    9.2953 Q=    0.4100 A=    0.0000 R=    0.0000 C=    0.0000
 XYZ=   -3.4687    5.0459    8.7426 Q=    0.4100 A=    0.0000 R=    0.0000 C=    0.0000
 XYZ=   -2.9027   10.6751    3.9632 Q=   -0.8200 A=    0.0000 R=    0.0000 C=    0.0000
 XYZ=   -2.2215   11.0353    4.6007 Q=    0.4100 A=    0.0000 R=    0.0000 C=    0.0000
 XYZ=   -3.0445   11.3307    3.2215 Q=    0.4100 A=    0.0000 R=    0.0000 C=    0.0000
 XYZ=  -10.0418   -3.5069    1.6785 Q=   -0.8200 A=    0.0000 R=    0.0000 C=    0.0000
 XYZ=   -9.4324   -3.5903    2.4670 Q=    0.4100 A=    0.0000 R=    0.0000 C=    0.0000
 XYZ=  -10.0354   -4.3622    1.1604 Q=    0.4100 A=    0.0000 R=    0.0000 C=    0.0000
 XYZ=  -11.6226   -1.3367   -1.2459 Q=   -0.8200 A=    0.0000 R=    0.0000 C=    0.0000
 XYZ=  -11.0397   -0.7647   -1.8230 Q=    0.4100 A=    0.0000 R=    0.0000 C=    0.0000
 XYZ=  -11.1950   -1.4504   -0.3491 Q=    0.4100 A=    0.0000 R=    0.0000 C=    0.0000
 XYZ=    0.6571  -11.5622   -0.4196 Q=   -0.8200 A=    0.0000 R=    0.0000 C=    0.0000
 XYZ=    0.4114  -12.3987   -0.9093 Q=    0.4100 A=    0.0000 R=    0.0000 C=    0.0000
 XYZ=    1.3274  -11.7767    0.2909 Q=    0.4100 A=    0.0000 R=    0.0000 C=    0.0000
 XYZ=   -3.6129   -6.9982   -9.1149 Q=   -0.8200 A=    0.0000 R=    0.0000 C=    0.0000
 XYZ=   -2.6904   -7.2318   -9.4222 Q=    0.4100 A=    0.0000 R=    0.0000 C=    0.0000
 XYZ=   -3.6397   -6.9923   -8.1152 Q=    0.4100 A=    0.0000 R=    0.0000 C=    0.0000
 XYZ=    2.1630   -0.0078  -11.2925 Q=   -0.8200 A=    0.0000 R=    0.0000 C=    0.0000
 XYZ=    2.8749   -0.6975  -11.1597 Q=    0.4100 A=    0.0000 R=    0.0000 C=    0.0000
 XYZ=    1.3423   -0.2745  -10.7872 Q=    0.4100 A=    0.0000 R=    0.0000 C=    0.0000
 XYZ=  -10.7696    2.7578   -2.5727 Q=   -0.8200 A=    0.0000 R=    0.0000 C=    0.0000
 XYZ=  -11.3050    3.1444   -3.3236 Q=    0.4100 A=    0.0000 R=    0.0000 C=    0.0000
 XYZ=  -11.3075    2.7873   -1.7302 Q=    0.4100 A=    0.0000 R=    0.0000 C=    0.0000
 XYZ=    8.4071   -6.4593   -2.9382 Q=   -0.8200 A=    0.0000 R=    0.0000 C=    0.0000
 XYZ=    8.8913   -6.7516   -2.1135 Q=    0.4100 A=    0.0000 R=    0.0000 C=    0.0000
 XYZ=    8.6074   -5.4963   -3.1186 Q=    0.4100 A=    0.0000 R=    0.0000 C=    0.0000
 XYZ=    0.8884   -7.3751    9.2203 Q=   -0.8200 A=    0.0000 R=    0.0000 C=    0.0000
 XYZ=    0.4454   -7.1300    8.3579 Q=    0.4100 A=    0.0000 R=    0.0000 C=    0.0000
 XYZ=    1.7420   -6.8626    9.3140 Q=    0.4100 A=    0.0000 R=    0.0000 C=    0.0000
 XYZ=   10.3030    3.6184    3.9307 Q=   -0.8200 A=    0.0000 R=    0.0000 C=    0.0000
 XYZ=    9.7170    2.9162    3.5262 Q=    0.4100 A=    0.0000 R=    0.0000 C=    0.0000
 XYZ=   11.2101    3.2353    4.1056 Q=    0.4100 A=    0.0000 R=    0.0000 C=    0.0000
 XYZ=   -7.4922   -6.8679   -5.4649 Q=   -0.8200 A=    0.0000 R=    0.0000 C=    0.0000
 XYZ=   -6.8650   -7.5703   -5.1285 Q=    0.4100 A=    0.0000 R=    0.0000 C=    0.0000
 XYZ=   -8.3064   -7.3041   -5.8483 Q=    0.4100 A=    0.0000 R=    0.0000 C=    0.0000
 XYZ=    0.5664  -10.7258   -5.8181 Q=   -0.8200 A=    0.0000 R=    0.0000 C=    0.0000
 XYZ=    1.2940  -10.3547   -5.2411 Q=    0.4100 A=    0.0000 R=    0.0000 C=    0.0000
 XYZ=    0.2198  -10.0070   -6.4209 Q=    0.4100 A=    0.0000 R=    0.0000 C=    0.0000
 XYZ=   -3.7972   -6.0178    7.7765 Q=   -0.8200 A=    0.0000 R=    0.0000 C=    0.0000
 XYZ=   -3.7561   -6.7946    8.4049 Q=    0.4100 A=    0.0000 R=    0.0000 C=    0.0000
 XYZ=   -4.7340   -5.9068    7.4446 Q=    0.4100 A=    0.0000 R=    0.0000 C=    0.0000
 XYZ=   -3.4200   12.1867    2.1272 Q=   -0.8200 A=    0.0000 R=    0.0000 C=    0.0000
 XYZ=   -4.0108   11.5065    1.6932 Q=    0.4100 A=    0.0000 R=    0.0000 C=    0.0000
 XYZ=   -3.9778   12.9437    2.4678 Q=    0.4100 A=    0.0000 R=    0.0000 C=    0.0000
 XYZ=   -6.7826    2.3830   -9.9182 Q=   -0.8200 A=    0.0000 R=    0.0000 C=    0.0000
 XYZ=   -7.2741    2.6920  -10.7325 Q=    0.4100 A=    0.0000 R=    0.0000 C=    0.0000
 XYZ=   -6.7823    3.1112   -9.2328 Q=    0.4100 A=    0.0000 R=    0.0000 C=    0.0000
 XYZ=    6.1753    3.4660    8.5053 Q=   -0.8200 A=    0.0000 R=    0.0000 C=    0.0000
 XYZ=    6.7298    3.3508    9.3294 Q=    0.4100 A=    0.0000 R=    0.0000 C=    0.0000
 XYZ=    6.1682    4.4303    8.2404 Q=    0.4100 A=    0.0000 R=    0.0000 C=    0.0000
 XYZ=    8.4912    8.1890   -0.1372 Q=   -0.8200 A=    0.0000 R=    0.0000 C=    0.0000
 XYZ=    8.7534    9.0485    0.3016 Q=    0.4100 A=    0.0000 R=    0.0000 C=    0.0000
 XYZ=    8.5243    7.4485    0.5340 Q=    0.4100 A=    0.0000 R=    0.0000 C=    0.0000
 XYZ=   -2.0285    6.7182   -9.5134 Q=   -0.8200 A=    0.0000 R=    0.0000 C=    0.0000
 XYZ=   -1.7549    7.3643  -10.2259 Q=    0.4100 A=    0.0000 R=    0.0000 C=    0.0000
 XYZ=   -2.9130    6.3161   -9.7500 Q=    0.4100 A=    0.0000 R=    0.0000 C=    0.0000
 XYZ=    2.5832   -7.4681   -9.2517 Q=   -0.8200 A=    0.0000 R=    0.0000 C=    0.0000
 XYZ=    1.7846   -7.1068   -8.7703 Q=    0.4100 A=    0.0000 R=    0.0000 C=    0.0000
 XYZ=    3.3747   -7.4554   -8.6406 Q=    0.4100 A=    0.0000 R=    0.0000 C=    0.0000
 XYZ=    4.4616   -7.1385   -7.8537 Q=   -0.8200 A=    0.0000 R=    0.0000 C=    0.0000
 XYZ=    4.7866   -6.1985   -7.9577 Q=    0.4100 A=    0.0000 R=    0.0000 C=    0.0000
 XYZ=    5.2437   -7.7614   -7.8358 Q=    0.4100 A=    0.0000 R=    0.0000 C=    0.0000
 XYZ=    1.9335   10.9434    6.3094 Q=   -0.8200 A=    0.0000 R=    0.0000 C=    0.0000
 XYZ=    1.9286   10.0992    5.7735 Q=    0.4100 A=    0.0000 R=    0.0000 C=    0.0000
 XYZ=    2.6202   11.5691    5.9394 Q=    0.4100 A=    0.0000 R=    0.0000 C=    0.0000
 XYZ=   -6.7549   -5.7402   -7.5065 Q=   -0.8200 A=    0.0000 R=    0.0000 C=    0.0000
 XYZ=   -7.4122   -5.0447   -7.7967 Q=    0.4100 A=    0.0000 R=    0.0000 C=    0.0000
 XYZ=   -7.1605   -6.3015   -6.7850 Q=    0.4100 A=    0.0000 R=    0.0000 C=    0.0000
 XYZ=   -5.6218    2.2586    8.9612 Q=   -0.8200 A=    0.0000 R=    0.0000 C=    0.0000
 XYZ=   -6.0711    1.7072    8.2583 Q=    0.4100 A=    0.0000 R=    0.0000 C=    0.0000
 XYZ=   -5.3299    1.6671    9.7129 Q=    0.4100 A=    0.0000 R=    0.0000 C=    0.0000
 XYZ=  -10.0970    2.5033   -5.8365 Q=   -0.8200 A=    0.0000 R=    0.0000 C=    0.0000
 XYZ=  -10.8861    2.7582   -5.2776 Q=    0.4100 A=    0.0000 R=    0.0000 C=    0.0000
 XYZ=  -10.1419    2.9809   -6.7139 Q=    0.4100 A=    0.0000 R=    0.0000 C=    0.0000
 XYZ=    8.7971    3.9547    5.6041 Q=   -0.8200 A=    0.0000 R=    0.0000 C=    0.0000
 XYZ=    9.4182    3.8403    4.8287 Q=    0.4100 A=    0.0000 R=    0.0000 C=    0.0000
 XYZ=    9.3289    4.0669    6.4435 Q=    0.4100 A=    0.0000 R=    0.0000 C=    0.0000
 XYZ=   -3.6408   -4.7356   -9.8798 Q=   -0.8200 A=    0.0000 R=    0.0000 C=    0.0000
 XYZ=   -2.9288   -4.8010  -10.5789 Q=    0.4100 A=    0.0000 R=    0.0000 C=    0.0000
 XYZ=   -3.6684   -5.5844   -9.3519 Q=    0.4100 A=    0.0000 R=    0.0000 C=    0.0000
 XYZ=    5.6040   -4.8063   -8.6886 Q=   -0.8200 A=    0.0000 R=    0.0000 C=    0.0000
 XYZ=    6.3630   -5.2615   -9.1540 Q=    0.4100 A=    0.0000 R=    0.0000 C=    0.0000
 XYZ=    5.9647   -4.1688   -8.0078 Q=    0.4100 A=    0.0000 R=    0.0000 C=    0.0000
 XYZ=    4.6269    2.3616   -9.1623 Q=   -0.8200 A=    0.0000 R=    0.0000 C=    0.0000
 XYZ=    5.6126    2.3671   -8.9941 Q=    0.4100 A=    0.0000 R=    0.0000 C=    0.0000
 XYZ=    4.4524    2.1011  -10.1119 Q=    0.4100 A=    0.0000 R=    0.0000 C=    0.0000
 XYZ=   -5.9480   -8.8038   -5.2251 Q=   -0.8200 A=    0.0000 R=    0.0000 C=    0.0000
 XYZ=   -5.9329   -9.4892   -4.4971 Q=    0.4100 A=    0.0000 R=    0.0000 C=    0.0000
 XYZ=   -6.5972   -9.0833   -5.9326 Q=    0.4100 A=    0.0000 R=    0.0000 C=    0.0000
 XYZ=   -7.4631    0.0425   -9.8686 Q=   -0.8200 A=    0.0000 R=    0.0000 C=    0.0000
 XYZ=   -8.4269   -0.0881   -9.6363 Q=    0.4100 A=    0.0000 R=    0.0000 C=    0.0000
 XYZ=   -7.1921    0.9804   -9.6517 Q=    0.4100 A=    0.0000 R=    0.0000 C=    0.0000
 XYZ=    5.4777    0.3468   10.6482 Q=   -0.8200 A=    0.0000 R=    0.0000 C=    0.0000
 XYZ=    5.5135    0.6060    9.6830 Q=    0.4100 A=    0.0000 R=    0.0000 C=    0.0000
 XYZ=    6.1905    0.8357   11.1512 Q=    0.4100 A=    0.0000 R=    0.0000 C=    0.0000
 XYZ=    0.8689    3.0854   10.6233 Q=   -0.8200 A=    0.0000 R=    0.0000 C=    0.0000
 XYZ=    1.8225    2.8371   10.7939 Q=    0.4100 A=    0.0000 R=    0.0000 C=    0.0000
 XYZ=    0.7706    4.0796   10.6663 Q=    0.4100 A=    0.0000 R=    0.0000 C=    0.0000
 XYZ=  -10.3836    0.4176   -6.7956 Q=   -0.8200 A=    0.0000 R=    0.0000 C=    0.0000
 XYZ=  -10.1303    1.3155   -6.4355 Q=    0.4100 A=    0.0000 R=    0.0000 C=    0.0000
 XYZ=  -11.3736    0.3802   -6.9317 Q=    0.4100 A=    0.0000 R=    0.0000 C=    0.0000
 XYZ=   -1.4654   -3.7006   10.2452 Q=   -0.8200 A=    0.0000 R=    0.0000 C=    0.0000
 XYZ=   -1.2128   -4.5446   10.7183 Q=    0.4100 A=    0.0000 R=    0.0000 C=    0.0000
 XYZ=   -1.6975   -2.9981   10.9180 Q=    0.4100 A=    0.0000 R=    0.0000 C=    0.0000
 XYZ=    7.1885    5.4662   -6.0263 Q=   -0.8200 A=    0.0000 R=    0.0000 C=    0.0000
 XYZ=    7.8553    6.2034   -5.9172 Q=    0.4100 A=    0.0000 R=    0.0000 C=    0.0000
 XYZ=    7.5026    4.8350   -6.7355 Q=    0.4100 A=    0.0000 R=    0.0000 C=    0.0000
 XYZ=   10.8636   -0.1476   -2.5353 Q=   -0.8200 A=    0.0000 R=    0.0000 C=    0.0000
 XYZ=   10.4832    0.7379   -2.2683 Q=    0.4100 A=    0.0000 R=    0.0000 C=    0.0000
 XYZ=   11.5380   -0.4388   -1.8568 Q=    0.4100 A=    0.0000 R=    0.0000 C=    0.0000
 XYZ=   -5.9038   11.2606   -1.2986 Q=   -0.8200 A=    0.0000 R=    0.0000 C=    0.0000
 XYZ=   -6.7153   11.5716   -1.7935 Q=    0.4100 A=    0.0000 R=    0.0000 C=    0.0000
 XYZ=   -5.1345   11.8646   -1.5068 Q=    0.4100 A=    0.0000 R=    0.0000 C=    0.0000
 XYZ=    0.4308   -6.2100  -10.6495 Q=   -0.8200 A=    0.0000 R=    0.0000 C=    0.0000
 XYZ=   -0.1135   -5.3896  -10.8244 Q=    0.4100 A=    0.0000 R=    0.0000 C=    0.0000
 XYZ=    0.8188   -6.1627   -9.7290 Q=    0.4100 A=    0.0000 R=    0.0000 C=    0.0000
 XYZ=    0.8430    5.3709   10.7056 Q=   -0.8200 A=    0.0000 R=    0.0000 C=    0.0000
 XYZ=    0.9103    6.0777   11.4098 Q=    0.4100 A=    0.0000 R=    0.0000 C=    0.0000
 XYZ=    0.1040    5.6007   10.0723 Q=    0.4100 A=    0.0000 R=    0.0000 C=    0.0000
 XYZ=   10.5006    4.1332   -1.8266 Q=   -0.8200 A=    0.0000 R=    0.0000 C=    0.0000
 XYZ=   10.2920    3.1552   -1.8224 Q=    0.4100 A=    0.0000 R=    0.0000 C=    0.0000
 XYZ=   10.8874    4.3952   -0.9424 Q=    0.4100 A=    0.0000 R=    0.0000 C=    0.0000
 XYZ=   -1.1967  -12.3264    2.7745 Q=   -0.8200 A=    0.0000 R=    0.0000 C=    0.0000
 XYZ=   -0.4942  -11.7403    2.3705 Q=    0.4100 A=    0.0000 R=    0.0000 C=    0.0000
 XYZ=   -1.7722  -12.7050    2.0496 Q=    0.4100 A=    0.0000 R=    0.0000 C=    0.0000
 XYZ=   -3.9108    5.3531   -9.9727 Q=   -0.8200 A=    0.0000 R=    0.0000 C=    0.0000
 XYZ=   -4.3390    6.1460  -10.4062 Q=    0.4100 A=    0.0000 R=    0.0000 C=    0.0000
 XYZ=   -3.7324    4.6518  -10.6629 Q=    0.4100 A=    0.0000 R=    0.0000 C=    0.0000
 XYZ=  -11.1746   -3.2310   -4.4731 Q=   -0.8200 A=    0.0000 R=    0.0000 C=    0.0000
 XYZ=  -11.1941   -2.2572   -4.7000 Q=    0.4100 A=    0.0000 R=    0.0000 C=    0.0000
 XYZ=  -10.3858   -3.6600   -4.9134 Q=    0.4100 A=    0.0000 R=    0.0000 C=    0.0000
 XYZ=    2.8920   -5.9474    9.6105 Q=   -0.8200 A=    0.0000 R=    0.0000 C=    0.0000
 XYZ=    3.8727   -6.1405    9.5790 Q=    0.4100 A=    0.0000 R=    0.0000 C=    0.0000
 XYZ=    2.6776   -5.4475   10.4496 Q=    0.4100 A=    0.0000 R=    0.0000 C=    0.0000
 XYZ=    3.0687    2.7192   11.3076 Q=   -0.8200 A=    0.0000 R=    0.0000 C=    0.0000
 XYZ=    3.5001    2.9260   10.4295 Q=    0.4100 A=    0.0000 R=    0.0000 C=    0.0000
 XYZ=    3.4675    1.8839   11.6863 Q=    0.4100 A=    0.0000 R=    0.0000 C=    0.0000
 XYZ=   -5.7319   -3.3794  -10.8791 Q=   -0.8200 A=    0.0000 R=    0.0000 C=    0.0000
 XYZ=   -5.0286   -3.8442  -10.3413 Q=    0.4100 A=    0.0000 R=    0.0000 C=    0.0000
 XYZ=   -6.2122   -4.0471  -11.4479 Q=    0.4100 A=    0.0000 R=    0.0000 C=    0.0000
 XYZ=    9.3624    5.6894   -3.1293 Q=   -0.8200 A=    0.0000 R=    0.0000 C=    0.0000
 XYZ=    9.8047    5.0732   -2.4777 Q=    0.4100 A=    0.0000 R=    0.0000 C=    0.0000
 XYZ=    9.4011    6.6261   -2.7812 Q=    0.4100 A=    0.0000 R=    0.0000 C=    0.0000
 XYZ=   -2.2467  -12.8297   -1.3718 Q=   -0.8200 A=    0.0000 R=    0.0000 C=    0.0000
 XYZ=   -2.3100  -12.0431   -1.9860 Q=    0.4100 A=    0.0000 R=    0.0000 C=    0.0000
 XYZ=   -1.2919  -13.1176   -1.2964 Q=    0.4100 A=    0.0000 R=    0.0000 C=    0.0000
 XYZ=   -2.8805    2.7720   11.1004 Q=   -0.8200 A=    0.0000 R=    0.0000 C=    0.0000
 XYZ=   -3.5398    3.0438   11.8015 Q=    0.4100 A=    0.0000 R=    0.0000 C=    0.0000
 XYZ=   -2.7567    3.5220   10.4506 Q=    0.4100 A=    0.0000 R=    0.0000 C=    0.0000
 XYZ=   -8.9364    2.3945    7.5586 Q=   -0.8200 A=    0.0000 R=    0.0000 C=    0.0000
 XYZ=   -8.9419    3.0960    8.2713 Q=    0.4100 A=    0.0000 R=    0.0000 C=    0.0000
 XYZ=   -8.0543    2.4051    7.0875 Q=    0.4100 A=    0.0000 R=    0.0000 C=    0.0000
 XYZ=   -7.4781  -10.4005   -1.9009 Q=   -0.8200 A=    0.0000 R=    0.0000 C=    0.0000
 XYZ=   -7.4454   -9.5622   -1.3566 Q=    0.4100 A=    0.0000 R=    0.0000 C=    0.0000
 XYZ=   -8.3567  -10.8563   -1.7583 Q=    0.4100 A=    0.0000 R=    0.0000 C=    0.0000
 XYZ=   -1.8665   11.6094   -7.1970 Q=   -0.8200 A=    0.0000 R=    0.0000 C=    0.0000
 XYZ=   -1.3938   11.2031   -6.4150 Q=    0.4100 A=    0.0000 R=    0.0000 C=    0.0000
 XYZ=   -1.3951   12.4472   -7.4728 Q=    0.4100 A=    0.0000 R=    0.0000 C=    0.0000
 XYZ=    4.9025    6.4687    9.8204 Q=   -0.8200 A=    0.0000 R=    0.0000 C=    0.0000
 XYZ=    4.0595    6.0542    9.4773 Q=    0.4100 A=    0.0000 R=    0.0000 C=    0.0000
 XYZ=    5.6578    6.2469    9.2036 Q=    0.4100 A=    0.0000 R=    0.0000 C=    0.0000
 XYZ=   -8.5537   -7.3023    3.9366 Q=   -0.8200 A=    0.0000 R=    0.0000 C=    0.0000
 XYZ=   -7.8101   -7.9620    3.8273 Q=    0.4100 A=    0.0000 R=    0.0000 C=    0.0000
 XYZ=   -9.0990   -7.5447    4.7390 Q=    0.4100 A=    0.0000 R=    0.0000 C=    0.0000
 XYZ=   -7.6740  -10.0178    1.4749 Q=   -0.8200 A=    0.0000 R=    0.0000 C=    0.0000
 XYZ=   -7.4997   -9.6707    2.3964 Q=    0.4100 A=    0.0000 R=    0.0000 C=    0.0000
 XYZ=   -7.8166   -9.2495    0.8509 Q=    0.4100 A=    0.0000 R=    0.0000 C=    0.0000
 XYZ=  -10.2063    5.5206   -6.6299 Q=   -0.8200 A=    0.0000 R=    0.0000 C=    0.0000
 XYZ=  -10.4838    4.6983   -7.1269 Q=    0.4100 A=    0.0000 R=    0.0000 C=    0.0000
 XYZ=   -9.2668    5.4124   -6.3049 Q=    0.4100 A=    0.0000 R=    0.0000 C=    0.0000
 XYZ=   -1.2914  -11.7959   -4.8162 Q=   -0.8200 A=    0.0000 R=    0.0000 C=    0.0000
 XYZ=   -0.5157  -11.3742   -5.2858 Q=    0.4100 A=    0.0000 R=    0.0000 C=    0.0000
 XYZ=   -1.8957  -12.2233   -5.4887 Q=    0.4100 A=    0.0000 R=    0.0000 C=    0.0000
 XYZ=    9.5786    7.6783    3.6225 Q=   -0.8200 A=    0.0000 R=    0.0000 C=    0.0000
 XYZ=   10.3219    7.0445    3.8364 Q=    0.4100 A=    0.0000 R=    0.0000 C=    0.0000
 XYZ=    9.1140    7.3782    2.7893 Q=    0.4100 A=    0.0000 R=    0.0000 C=    0.0000
 XYZ=    9.9720   -7.2640   -1.0033 Q=   -0.8200 A=    0.0000 R=    0.0000 C=    0.0000
 XYZ=    9.7835   -6.6452   -0.2407 Q=    0.4100 A=    0.0000 R=    0.0000 C=    0.0000
 XYZ=   10.3379   -8.1254   -0.6510 Q=    0.4100 A=    0.0000 R=    0.0000 C=    0.0000
[...]
    39  O    0.000000   0.000000   0.000000   0.000000   0.000000   0.000000
    40  H    0.000000   0.000000   0.000000   0.000000   0.000000   0.000000
    41  H    0.000000   0.000000   0.000000   0.000000   0.000000   0.000000
    42  O    0.000000   0.000000   0.000000   0.000000   0.000000  -0.004278
    43  H    0.000000   0.000000   0.000000   0.000000   0.000000  -0.001215
    44  H    0.000000   0.000000   0.000000   0.000000   0.000000  -0.000235
    45  O    0.037079   0.000826   0.000233  -0.000003   0.000006   0.000000
    46  H   -0.000993   0.000099  -0.000007   0.000000   0.000000   0.000000
    47  H   -0.000820  -0.000105   0.000001   0.000000   0.000000   0.000000
    48  O    0.000000   0.000000   0.000824   0.000016   0.000000   0.000020
    49  H    0.000000   0.000000  -0.000268   0.000003   0.000002  -0.000001
    50  H    0.000000   0.000000  -0.000090   0.000000   0.000000   0.000055
              31         32         33         34         35         36
     1  C    0.000000  -0.000099  -0.001693  -0.000042   0.000374   0.000841
     2  H    0.000000  -0.000002   0.000001   0.000000   0.000000   0.000000
     3  H    0.000000   0.000000   0.000000   0.000000   0.000000   0.000000
     4  C    0.000001   0.000215  -0.023652   0.000082   0.003375   0.002040
     5  H    0.000000   0.000000  -0.000007   0.000000   0.000000  -0.000037
     6  C    0.000002   0.000394  -0.005551   0.000563   0.001476  -0.002582
     7  H    0.000000   0.000000  -0.002061   0.000044  -0.000386   0.000006
     8  O    0.000086   0.000342   0.003564  -0.000238   0.001816   0.000008
     9  O    0.002247   0.002994   0.000576  -0.000016   0.000046   0.000000
    10  H   -0.000027   0.000888  -0.000075   0.000003   0.000015   0.000000
    11  H    0.000014   0.001296  -0.000024   0.000001   0.000000   0.000000
    12  O   -0.000034  -0.000296  -0.096427  -0.001119   0.097720   0.000005
    13  H    0.000000   0.000034   0.007265  -0.000016  -0.003018   0.000000
    14  H   -0.000001   0.000014   0.002472  -0.000078  -0.004837   0.000000
    15  O    0.000000   0.000000  -0.000001   0.000000   0.000000  -0.000629
    16  H    0.000000   0.000000   0.000000   0.000000   0.000000  -0.000205
    17  H    0.000000   0.000000   0.000000   0.000000   0.000000  -0.000010
    18  O    0.000000   0.000000  -0.124352  -0.000172   0.007332   0.000038
    19  H    0.000000   0.000000   0.001710   0.000152  -0.000540   0.000614
    20  H    0.000000   0.000000   0.035334  -0.005439   0.002472   0.000005
    21  O    0.000000   0.000000  -0.000001   0.000000   0.000000  -0.009233
    22  H    0.000000   0.000000   0.000000   0.000000   0.000000  -0.000929
    23  H    0.000000   0.000000   0.000000   0.000000   0.000000   0.006721
    24  O    0.000000   0.000000   0.000005   0.000000  -0.000001  -0.001320
    25  H    0.000000   0.000000   0.000000   0.000000   0.000000  -0.000331
    26  H    0.000000   0.000000  -0.000001   0.000000   0.000000   0.000033
    27  O    0.000000   0.000000   0.000000   0.000000   0.000000  -0.000003
    28  H    0.000000   0.000000   0.000000   0.000000   0.000000   0.000000
    29  H    0.000000   0.000000   0.000000   0.000000   0.000000   0.000000
    30  O    0.208993   0.184436   0.000079  -0.000003  -0.000013   0.000000
    31  H    0.200309  -0.006967   0.000000   0.000000   0.000000   0.000000
    32  H   -0.006967   0.212905  -0.000002   0.000000   0.000000   0.000000
    33  O    0.000000  -0.000002   9.179751   0.191066   0.104119   0.000001
    34  H    0.000000   0.000000   0.191066   0.153122  -0.002674   0.000000
    35  H    0.000000   0.000000   0.104119  -0.002674   0.171360   0.000000
    36  O    0.000000   0.000000   0.000001   0.000000   0.000000   8.888805
    37  H    0.000000   0.000000   0.000000   0.000000   0.000000   0.163580
    38  H    0.000000   0.000000   0.000000   0.000000   0.000000   0.206770
    39  O    0.000000   0.000000   0.000007   0.000000   0.000000  -0.000185
    40  H    0.000000   0.000000   0.000000   0.000000   0.000000   0.000003
    41  H    0.000000   0.000000   0.000000   0.000000   0.000000   0.000001
    42  O   -0.000546  -0.000136   0.000000   0.000000   0.000000   0.000000
    43  H   -0.000083  -0.000082   0.000000   0.000000   0.000000   0.000000
    44  H    0.000016  -0.000009   0.000000   0.000000   0.000000   0.000000
    45  O    0.000000   0.000000   0.000001   0.000000   0.000000  -0.055380
    46  H    0.000000   0.000000   0.000000   0.000000   0.000000   0.000314
    47  H    0.000000   0.000000   0.000000   0.000000   0.000000  -0.000411
    48  O    0.000001   0.000002   0.000000   0.000000   0.000000   0.000000
    49  H    0.000000   0.000000   0.000000   0.000000   0.000000   0.000000
    50  H   -0.000004  -0.000001   0.000000   0.000000   0.000000   0.000000
              37         38         39         40         41         42
     1  C   -0.000023   0.000085   0.005245   0.000270  -0.000213  -0.000509
     2  H    0.000000   0.000000   0.000000   0.000000   0.000000   0.000000
     3  H    0.000000   0.000000   0.000000   0.000000   0.000000   0.000000
     4  C   -0.000178  -0.000229  -0.011074  -0.001916   0.000168   0.000658
     5  H   -0.000001  -0.000001  -0.000159   0.000002   0.000000   0.000000
     6  C    0.000250   0.000135   0.010499   0.002484  -0.000251  -0.000707
     7  H    0.000000   0.000000  -0.000095   0.000030   0.000001   0.000000
     8  O   -0.000001   0.000000   0.000006  -0.000009  -0.000001   0.000354
     9  O    0.000000   0.000000   0.000001   0.000000   0.000000  -0.013665
    10  H    0.000000   0.000000   0.000000   0.000000   0.000000   0.000105
    11  H    0.000000   0.000000   0.000000   0.000000   0.000000  -0.001327
    12  O   -0.000001   0.000000   0.000000   0.000002   0.000000  -0.000023
    13  H    0.000000   0.000000   0.000000   0.000000   0.000000  -0.000005
    14  H    0.000000   0.000000   0.000000   0.000000   0.000000   0.000002
    15  O   -0.000172   0.000007   0.000000   0.000000   0.000000   0.000000
    16  H   -0.000096   0.000011   0.000000   0.000000   0.000000   0.000000
    17  H   -0.000003   0.000000   0.000000   0.000000   0.000000   0.000000
    18  O    0.000030  -0.000009   0.000071  -0.000722  -0.000006   0.000000
    19  H   -0.000062  -0.000012  -0.000087   0.000055   0.000000   0.000000
    20  H    0.000000   0.000000   0.000011   0.000007   0.000000   0.000000
    21  O    0.005461   0.005062  -0.000007   0.000000   0.000000   0.000000
    22  H   -0.000636  -0.000542   0.000000   0.000000   0.000000   0.000000
    23  H   -0.000762   0.002813   0.000004   0.000000   0.000000   0.000000
    24  O   -0.001535   0.000064   0.000000   0.000000   0.000000   0.000000
    25  H    0.000512   0.000006   0.000000   0.000000   0.000000   0.000000
    26  H    0.000016  -0.000001   0.000000   0.000000   0.000000   0.000000
    27  O   -0.000001   0.000000   0.000000   0.000000   0.000000   0.000000
    28  H    0.000000   0.000000   0.000000   0.000000   0.000000   0.000000
    29  H    0.000000   0.000000   0.000000   0.000000   0.000000   0.000000
    30  O    0.000000   0.000000   0.000000   0.000000   0.000000  -0.004278
    31  H    0.000000   0.000000   0.000000   0.000000   0.000000  -0.000546
    32  H    0.000000   0.000000   0.000000   0.000000   0.000000  -0.000136
    33  O    0.000000   0.000000   0.000007   0.000000   0.000000   0.000000
    34  H    0.000000   0.000000   0.000000   0.000000   0.000000   0.000000
    35  H    0.000000   0.000000   0.000000   0.000000   0.000000   0.000000
    36  O    0.163580   0.206770  -0.000185   0.000003   0.000001   0.000000
    37  H    0.240776  -0.005360   0.000003   0.000000   0.000000   0.000000
    38  H   -0.005360   0.188291   0.000032  -0.000001   0.000000   0.000000
    39  O    0.000003   0.000032   8.739694   0.220218   0.229436   0.000000
    40  H    0.000000  -0.000001   0.220218   0.170139  -0.009142   0.000000
    41  H    0.000000   0.000000   0.229436  -0.009142   0.198519   0.000000
    42  O    0.000000   0.000000   0.000000   0.000000   0.000000   8.819024
    43  H    0.000000   0.000000   0.000000   0.000000   0.000000   0.166691
    44  H    0.000000   0.000000   0.000000   0.000000   0.000000   0.214933
    45  O    0.028035  -0.000481  -0.000002   0.000000   0.000000   0.000000
    46  H   -0.002262   0.000038   0.000000   0.000000   0.000000   0.000000
    47  H   -0.002382   0.000054   0.000000   0.000000   0.000000   0.000000
    48  O    0.000000   0.000000   0.000000   0.000000   0.000000   0.000000
    49  H    0.000000   0.000000   0.000000   0.000000   0.000000   0.000000
    50  H    0.000000   0.000000   0.000000   0.000000   0.000000   0.000000
              43         44         45         46         47         48
     1  C   -0.000058   0.000010   0.000362  -0.000022   0.000002   0.001725
     2  H   -0.000001   0.000000   0.000000   0.000000   0.000000  -0.000035
     3  H    0.000000   0.000000   0.000000   0.000000   0.000000   0.000005
     4  C   -0.000073  -0.000020   0.001135   0.000002  -0.000076  -0.002013
     5  H    0.000000   0.000000  -0.000025   0.000000   0.000000   0.000000
     6  C    0.000025   0.000044  -0.001042   0.000020   0.000063   0.001261
     7  H    0.000000   0.000000   0.000002   0.000000   0.000000   0.000000
     8  O   -0.000079   0.000000  -0.000004   0.000000   0.000000  -0.000052
     9  O    0.041194  -0.001286   0.000000   0.000000   0.000000  -0.000023
    10  H   -0.000828   0.000049   0.000000   0.000000   0.000000   0.000000
    11  H   -0.001890   0.000103   0.000000   0.000000   0.000000   0.000000
    12  O    0.000004   0.000000   0.000004   0.000000   0.000000  -0.000043
    13  H   -0.000001   0.000000   0.000000   0.000000   0.000000   0.000004
    14  H    0.000000   0.000000   0.000000   0.000000   0.000000   0.000000
    15  O    0.000000   0.000000  -0.001124  -0.000719   0.000080   0.000009
    16  H    0.000000   0.000000   0.004432  -0.000299   0.000012   0.000000
    17  H    0.000000   0.000000   0.001533  -0.000145   0.000042   0.000001
    18  O    0.000000   0.000000  -0.000068   0.000001   0.000004   0.000000
    19  H    0.000000   0.000000   0.000087   0.000000  -0.000003   0.000000
    20  H    0.000000   0.000000   0.000002   0.000000   0.000000   0.000000
    21  O    0.000000   0.000000  -0.063662   0.004271   0.003190   0.000000
    22  H    0.000000   0.000000   0.008950   0.008131  -0.000176   0.000000
    23  H    0.000000   0.000000  -0.000162  -0.000095  -0.000021   0.000000
    24  O    0.000000   0.000000  -0.051057  -0.001273  -0.000524  -0.000006
    25  H    0.000000   0.000000   0.037079  -0.000993  -0.000820   0.000000
    26  H    0.000000   0.000000   0.000826   0.000099  -0.000105   0.000000
    27  O    0.000000   0.000000   0.000233  -0.000007   0.000001   0.000824
    28  H    0.000000   0.000000  -0.000003   0.000000   0.000000   0.000016
    29  H    0.000000   0.000000   0.000006   0.000000   0.000000   0.000000
    30  O   -0.001215  -0.000235   0.000000   0.000000   0.000000   0.000020
    31  H   -0.000083   0.000016   0.000000   0.000000   0.000000   0.000001
    32  H   -0.000082  -0.000009   0.000000   0.000000   0.000000   0.000002
    33  O    0.000000   0.000000   0.000001   0.000000   0.000000   0.000000
    34  H    0.000000   0.000000   0.000000   0.000000   0.000000   0.000000
    35  H    0.000000   0.000000   0.000000   0.000000   0.000000   0.000000
    36  O    0.000000   0.000000  -0.055380   0.000314  -0.000411   0.000000
    37  H    0.000000   0.000000   0.028035  -0.002262  -0.002382   0.000000
    38  H    0.000000   0.000000  -0.000481   0.000038   0.000054   0.000000
    39  O    0.000000   0.000000  -0.000002   0.000000   0.000000   0.000000
    40  H    0.000000   0.000000   0.000000   0.000000   0.000000   0.000000
    41  H    0.000000   0.000000   0.000000   0.000000   0.000000   0.000000
    42  O    0.166691   0.214933   0.000000   0.000000   0.000000   0.000000
    43  H    0.204347  -0.006273   0.000000   0.000000   0.000000   0.000000
    44  H   -0.006273   0.203317   0.000000   0.000000   0.000000   0.000000
    45  O    0.000000   0.000000   8.943313   0.196592   0.190399   0.000000
    46  H    0.000000   0.000000   0.196592   0.161410  -0.007509   0.000000
    47  H    0.000000   0.000000   0.190399  -0.007509   0.172744   0.000000
    48  O    0.000000   0.000000   0.000000   0.000000   0.000000   8.667279
    49  H    0.000000   0.000000   0.000000   0.000000   0.000000   0.208224
    50  H    0.000000   0.000000   0.000000   0.000000   0.000000   0.225721
              49         50
     1  C   -0.000143   0.002385
     2  H   -0.000001  -0.000022
     3  H    0.000000   0.000000
     4  C    0.000181  -0.002720
     5  H    0.000000   0.000000
     6  C   -0.000098   0.001777
     7  H    0.000000   0.000000
     8  O    0.000001  -0.000119
     9  O    0.000000  -0.000032
    10  H    0.000000   0.000001
    11  H    0.000000   0.000000
    12  O    0.000001  -0.000048
    13  H    0.000000   0.000003
    14  H    0.000000   0.000000
    15  O   -0.000007   0.000000
    16  H    0.000000   0.000000
    17  H    0.000000   0.000000
    18  O    0.000000   0.000000
    19  H    0.000000   0.000000
    20  H    0.000000   0.000000
    21  O    0.000000   0.000000
    22  H    0.000000   0.000000
    23  H    0.000000   0.000000
    24  O    0.000001   0.000000
    25  H    0.000000   0.000000
    26  H    0.000000   0.000000
    27  O   -0.000268  -0.000090
    28  H    0.000003   0.000000
    29  H    0.000002   0.000000
    30  O   -0.000001   0.000055
    31  H    0.000000  -0.000004
    32  H    0.000000  -0.000001
    33  O    0.000000   0.000000
    34  H    0.000000   0.000000
    35  H    0.000000   0.000000
    36  O    0.000000   0.000000
    37  H    0.000000   0.000000
    38  H    0.000000   0.000000
    39  O    0.000000   0.000000
    40  H    0.000000   0.000000
    41  H    0.000000   0.000000
    42  O    0.000000   0.000000
    43  H    0.000000   0.000000
    44  H    0.000000   0.000000
    45  O    0.000000   0.000000
    46  H    0.000000   0.000000
    47  H    0.000000   0.000000
    48  O    0.208224   0.225721
    49  H    0.158672  -0.009387
    50  H   -0.009387   0.319003
 Mulliken charges:
               1
     1  C   -0.497641
     2  H    0.239907
     3  H    0.257115
     4  C   -0.007000
     5  H    0.252700
     6  C    0.125981
     7  H    0.192438
     8  O   -0.541968
     9  O   -1.215962
    10  H    0.575786
    11  H    0.658127
    12  O   -1.182629
    13  H    0.557247
    14  H    0.611832
    15  O   -1.215613
    16  H    0.558739
    17  H    0.620973
    18  O   -1.141383
    19  H    0.460070
    20  H    0.636602
    21  O   -1.187529
    22  H    0.574733
    23  H    0.616962
    24  O   -1.120101
    25  H    0.619409
    26  H    0.502363
    27  O   -1.146750
    28  H    0.560960
    29  H    0.589581
    30  O   -1.213430
    31  H    0.595994
    32  H    0.604073
    33  O   -1.272104
    34  H    0.664764
    35  H    0.621365
    36  O   -1.198529
    37  H    0.574811
    38  H    0.603267
    39  O   -1.193614
    40  H    0.618583
    41  H    0.581487
    42  O   -1.180570
    43  H    0.598322
    44  H    0.589351
    45  O   -1.239981
    46  H    0.642445
    47  H    0.645438
    48  O   -1.102919
    49  H    0.642820
    50  H    0.463480
 Sum of Mulliken charges =   0.00000
 Mulliken charges with hydrogens summed into heavy atoms:
               1
     1  C   -0.000620
     4  C    0.245699
     6  C    0.318419
     8  O   -0.541968
     9  O    0.017952
    12  O   -0.013549
    15  O   -0.035902
    18  O   -0.044711
    21  O    0.004166
    24  O    0.001672
    27  O    0.003790
    30  O   -0.013362
    33  O    0.014024
    36  O   -0.020451
    39  O    0.006456
    42  O    0.007103
    45  O    0.047902
    48  O    0.003381
 Electronic spatial extent (au):  <R**2>=          13366.5457
 Charge=              0.0000 electrons
 Dipole moment (field-independent basis, Debye):
    X=              4.6413    Y=             -6.3321    Z=              3.2379  Tot=              8.4924
 Quadrupole moment (field-independent basis, Debye-Ang):
   XX=           -105.7515   YY=           -173.3666   ZZ=           -135.6866
   XY=             46.5340   XZ=             -2.3963   YZ=            -13.9637
 Traceless Quadrupole moment (field-independent basis, Debye-Ang):
   XX=             32.5167   YY=            -35.0984   ZZ=              2.5816
   XY=             46.5340   XZ=             -2.3963   YZ=            -13.9637
 Octapole moment (field-independent basis, Debye-Ang**2):
  XXX=            435.0980  YYY=           -129.3217  ZZZ=            -12.3465  XYY=           -141.0644
  XXY=           -118.3934  XXZ=           -137.4122  XZZ=             94.9195  YZZ=              8.1311
  YYZ=            120.3417  XYZ=             11.6450
 Hexadecapole moment (field-independent basis, Debye-Ang**3):
 XXXX=          -7876.7964 YYYY=          -5154.2739 ZZZZ=          -1893.7153 XXXY=            956.5557
 XXXZ=            317.1093 YYYX=           1192.8000 YYYZ=            -72.5999 ZZZX=            -40.2405
 ZZZY=           -111.9187 XXYY=          -2804.5956 XXZZ=          -2396.2705 YYZZ=          -1152.5059
 XXYZ=           -139.0464 YYXZ=             51.7746 ZZXY=            113.2909
 N-N= 1.037690789031D+03 E-N=-6.039169454286D+03  KE= 1.248872809597D+03
 Leave Link  601 at Fri Sep 14 18:26:31 2018, MaxMem=    33554432 cpu:        10.4
 (Enter /usr/local/pacerepov1/gaussian/G09D01LINDA/g09/l9999.exe)

 Test job not archived.
 1\1\GINC-RICH133-C38-16-L\SP\RLC-wPBE TD-FC\6-31+G(d)\C3H32O15\ROOT\14
 -Sep-2018\0\\#p td=(nstates=15)/6-31+g(d) lc-wpbe charge\\Acroleina in
  Water\\0,1\C,0,0.485154,0.480443,-1.430142\H,0,1.461403,0.187773,-1.0
 55732\H,0,0.429244,0.878853,-2.437062\C,0,-0.605127,0.346563,-0.658432
 \H,0,-1.591686,0.632893,-1.012412\C,0,-0.508516,-0.199107,0.712798\H,0
 ,-1.458487,-0.272107,1.272438\O,0,0.544883,-0.561317,1.236519\O,0,2.65
 9625,-2.377471,1.719903\H,0,2.035465,-1.864121,1.130893\H,0,2.178495,-
 3.161361,2.112333\O,0,0.541005,0.373539,3.038613\H,0,0.807685,0.239299
 ,2.084223\H,0,1.311535,0.148029,3.634833\O,0,-0.647375,5.262169,-1.567
 287\H,0,-1.442925,4.669889,-1.695117\H,0,-0.512805,5.433469,-0.591307\
 O,0,-3.006255,0.431279,2.875943\H,0,-2.563125,1.059229,2.236123\H,0,-2
 .315955,0.019859,3.471163\O,0,-3.315935,4.25069,-1.782687\H,0,-3.62450
 5,5.1192,-1.394757\H,0,-4.030275,3.560729,-1.665377\O,0,-0.759875,5.63
 7849,0.809203\H,0,-1.742465,5.510489,0.673643\H,0,-0.432525,4.993559,1
 .500413\O,0,1.879845,5.005109,-2.147767\H,0,2.078795,5.757949,-2.77519
 7\H,0,0.889665,4.909029,-2.045847\O,0,4.302585,-1.596651,3.246123\H,0,
 5.187795,-1.251621,2.934013\H,0,3.708605,-1.752661,2.456893\O,0,-1.447
 445,-0.362191,4.367043\H,0,-1.410585,-1.361461,4.355643\H,0,-0.614345,
 0.006759,3.954933\O,0,-4.964775,3.577699,0.525813\H,0,-4.076505,4.0287
 69,0.612983\H,0,-5.028695,3.137799,-0.369997\O,0,-5.155175,-1.470531,-
 0.622977\H,0,-4.635075,-1.265301,0.206093\H,0,-5.175635,-2.459881,-0.7
 67217\O,0,4.412575,-4.16627,0.749053\H,0,3.697385,-3.523351,1.023313\H
 ,0,4.703735,-4.699561,1.543323\O,0,-3.167175,5.32211,0.701163\H,0,-3.6
 68785,5.82093,-0.005637\H,0,-3.513665,5.58252,1.602363\O,0,4.916845,2.
 888049,0.163403\H,0,4.418685,3.386609,-0.546067\H,0,4.305555,2.226099,
 0.597173\\Version=EM64L-G09RevD.01\State=1-A\HF=-1759.5544222\RMSD=3.3
 67e-09\PG=C01 [X(C3H32O15)]\\@


 THE BEST WAY TO CONVINCE A FOOL THAT HE IS WRONG 
 IS TO LET HIM HAVE HIS OWN WAY.

                                         JOSH BILLINGS
 Job cpu time:       0 days  2 hours 20 minutes 24.0 seconds.
 File lengths (MBytes):  RWF=    792 Int=      0 D2E=      0 Chk=     96 Scr=      2
 Normal termination of Gaussian 09 at Fri Sep 14 18:26:37 2018.
