 Entering Gaussian System, Link 0=g09
 Input=Acroleina_water_15_78c.gjf
 Output=Acroleina_water_15_78c.log
 Initial command:
 /usr/local/pacerepov1/gaussian/G09D01LINDA/g09/l1.exe /nv/hp18/holiveira7/scratch/22412005/Gau-64731.inp -scrdir=/nv/hp18/holiveira7/scratch/22412005/
 Entering Link 1 = /usr/local/pacerepov1/gaussian/G09D01LINDA/g09/l1.exe PID=     64732.
  
 Copyright (c) 1988,1990,1992,1993,1995,1998,2003,2009,2013,
            Gaussian, Inc.  All Rights Reserved.
  
 This is part of the Gaussian(R) 09 program.  It is based on
 the Gaussian(R) 03 system (copyright 2003, Gaussian, Inc.),
 the Gaussian(R) 98 system (copyright 1998, Gaussian, Inc.),
 the Gaussian(R) 94 system (copyright 1995, Gaussian, Inc.),
 the Gaussian 92(TM) system (copyright 1992, Gaussian, Inc.),
 the Gaussian 90(TM) system (copyright 1990, Gaussian, Inc.),
 the Gaussian 88(TM) system (copyright 1988, Gaussian, Inc.),
 the Gaussian 86(TM) system (copyright 1986, Carnegie Mellon
 University), and the Gaussian 82(TM) system (copyright 1983,
 Carnegie Mellon University). Gaussian is a federally registered
 trademark of Gaussian, Inc.
  
 This software contains proprietary and confidential information,
 including trade secrets, belonging to Gaussian, Inc.
  
 This software is provided under written license and may be
 used, copied, transmitted, or stored only in accord with that
 written license.
  
 The following legend is applicable only to US Government
 contracts under FAR:
  
                    RESTRICTED RIGHTS LEGEND
  
 Use, reproduction and disclosure by the US Government is
 subject to restrictions as set forth in subparagraphs (a)
 and (c) of the Commercial Computer Software - Restricted
 Rights clause in FAR 52.227-19.
  
 Gaussian, Inc.
 340 Quinnipiac St., Bldg. 40, Wallingford CT 06492
  
  
 ---------------------------------------------------------------
 Warning -- This program may not be used in any manner that
 competes with the business of Gaussian, Inc. or will provide
 assistance to any competitor of Gaussian, Inc.  The licensee
 of this program is prohibited from giving any competitor of
 Gaussian, Inc. access to this program.  By using this program,
 the user acknowledges that Gaussian, Inc. is engaged in the
 business of creating and licensing software in the field of
 computational chemistry and represents and warrants to the
 licensee that it is not a competitor of Gaussian, Inc. and that
 it will not use this program in any manner prohibited above.
 ---------------------------------------------------------------
  

 Cite this work as:
 Gaussian 09, Revision D.01,
 M. J. Frisch, G. W. Trucks, H. B. Schlegel, G. E. Scuseria, 
 M. A. Robb, J. R. Cheeseman, G. Scalmani, V. Barone, B. Mennucci, 
 G. A. Petersson, H. Nakatsuji, M. Caricato, X. Li, H. P. Hratchian, 
 A. F. Izmaylov, J. Bloino, G. Zheng, J. L. Sonnenberg, M. Hada, 
 M. Ehara, K. Toyota, R. Fukuda, J. Hasegawa, M. Ishida, T. Nakajima, 
 Y. Honda, O. Kitao, H. Nakai, T. Vreven, J. A. Montgomery, Jr., 
 J. E. Peralta, F. Ogliaro, M. Bearpark, J. J. Heyd, E. Brothers, 
 K. N. Kudin, V. N. Staroverov, T. Keith, R. Kobayashi, J. Normand, 
 K. Raghavachari, A. Rendell, J. C. Burant, S. S. Iyengar, J. Tomasi, 
 M. Cossi, N. Rega, J. M. Millam, M. Klene, J. E. Knox, J. B. Cross, 
 V. Bakken, C. Adamo, J. Jaramillo, R. Gomperts, R. E. Stratmann, 
 O. Yazyev, A. J. Austin, R. Cammi, C. Pomelli, J. W. Ochterski, 
 R. L. Martin, K. Morokuma, V. G. Zakrzewski, G. A. Voth, 
 P. Salvador, J. J. Dannenberg, S. Dapprich, A. D. Daniels, 
 O. Farkas, J. B. Foresman, J. V. Ortiz, J. Cioslowski, 
 and D. J. Fox, Gaussian, Inc., Wallingford CT, 2013.
 
 ******************************************
 Gaussian 09:  EM64L-G09RevD.01 24-Apr-2013
                14-Sep-2018 
 ******************************************
 %chk=Acrolina_Din_78.chk
 %nprocshared=10
 Will use up to   10 processors via shared memory.
 -------------------------------------------
 #p td=(nstates=15)/6-31+g(d) lc-wpbe charge
 -------------------------------------------
 1/18=10,28=-2,38=1,125=101/1;
 2/12=2,17=6,18=5,40=1/2;
 3/5=1,6=6,7=11,11=9,16=1,25=1,30=1,74=-41/1,2,8,3;
 4//1;
 5/5=2,38=5/2;
 8/6=1,10=2,108=15/1;
 9/41=15,42=1,70=2/14;
 6/7=2,8=2,9=2,10=2/1;
 99/5=1,9=1/99;
 Leave Link    1 at Fri Sep 14 17:29:15 2018, MaxMem=           0 cpu:         2.1
 (Enter /usr/local/pacerepov1/gaussian/G09D01LINDA/g09/l101.exe)
 ------------------
 Acroleina in Water
 ------------------
 Symbolic Z-matrix:
 Charge =  0 Multiplicity = 1
 C                     0.48515   0.48044  -1.43014 
 H                     1.4614    0.18777  -1.05573 
 H                     0.42924   0.87885  -2.43706 
 C                    -0.60513   0.34656  -0.65843 
 H                    -1.59169   0.63289  -1.01241 
 C                    -0.50852  -0.19911   0.7128 
 H                    -1.45849  -0.27211   1.27244 
 O                     0.54488  -0.56132   1.23652 
 O                     1.7443   -2.82972   2.07855 
 H                     1.23081  -2.1155    1.60286 
 H                     1.10692  -3.45109   2.53421 
 O                    -0.7787    0.09617   3.13155 
 H                    -0.42297  -0.32104   2.29525 
 H                    -0.06906   0.08776   3.83611 
 O                     0.65288   4.77004  -1.61169 
 H                     0.83136   5.31492  -2.43099 
 H                    -0.30514   4.87411  -1.34438 
 O                     3.08108  -1.47819   3.734 
 H                     3.76711  -0.88533   3.31215 
 H                     2.60542  -1.99596   3.02287 
 O                    -1.80868   5.31917  -1.43188 
 H                    -2.66366   4.89946  -1.73664 
 H                    -1.90775   5.62823  -0.48601 
 O                     3.62236   2.49687   0.21697 
 H                     3.30021   3.35888  -0.17449 
 H                     2.91111   1.80059   0.12035 
 O                    -2.08086   5.78547   0.93454 
 H                    -2.9706    5.35904   1.09764 
 H                    -1.38721   5.33465   1.49637 
 O                    -2.68913  -0.90075   3.89451 
 H                    -2.34339  -1.74652   4.30091 
 H                    -1.91981  -0.31749   3.6338 
 O                     3.49092  -4.30068   1.34186 
 H                     2.80573  -3.59397   1.5183 
 H                     3.45006  -4.99198   2.06329 
 O                    -4.12235   0.65667   3.00731 
 H                    -3.47886   1.29777   2.58905 
 H                    -3.62638  -0.1479    3.334 
 O                     3.09411   4.75278  -0.83655 
 H                     3.67796   5.39044  -1.33904 
 H                     2.16975   4.7763   -1.21744 
 O                     1.49418  -0.4501    4.98629 
 H                     1.96733   0.14043   5.64009 
 H                     2.15625  -0.82915   4.33976 
 O                     0.47331  -4.64264   2.9688 
 H                     0.25886  -5.39673   2.348 
 H                     1.15065  -4.94535   3.6393 
 O                    -1.43947   7.07232  -2.89464 
 H                    -1.51844   6.26378  -2.31145 
 H                    -1.58384   7.89513  -2.34493 
 
 NAtoms=     50 NQM=       50 NQMF=       0 NMMI=      0 NMMIF=      0
                NMic=       0 NMicF=      0.
                    Isotopes and Nuclear Properties:
 (Nuclear quadrupole moments (NQMom) in fm**2, nuclear magnetic moments (NMagM)
  in nuclear magnetons)

  Atom         1           2           3           4           5           6           7           8           9          10
 IAtWgt=          12           1           1          12           1          12           1          16          16           1
 AtmWgt=  12.0000000   1.0078250   1.0078250  12.0000000   1.0078250  12.0000000   1.0078250  15.9949146  15.9949146   1.0078250
 NucSpn=           0           1           1           0           1           0           1           0           0           1
 AtZEff=   0.0000000   0.0000000   0.0000000   0.0000000   0.0000000   0.0000000   0.0000000   0.0000000   0.0000000   0.0000000
 NQMom=    0.0000000   0.0000000   0.0000000   0.0000000   0.0000000   0.0000000   0.0000000   0.0000000   0.0000000   0.0000000
 NMagM=    0.0000000   2.7928460   2.7928460   0.0000000   2.7928460   0.0000000   2.7928460   0.0000000   0.0000000   2.7928460
 AtZNuc=   6.0000000   1.0000000   1.0000000   6.0000000   1.0000000   6.0000000   1.0000000   8.0000000   8.0000000   1.0000000

  Atom        11          12          13          14          15          16          17          18          19          20
 IAtWgt=           1          16           1           1          16           1           1          16           1           1
 AtmWgt=   1.0078250  15.9949146   1.0078250   1.0078250  15.9949146   1.0078250   1.0078250  15.9949146   1.0078250   1.0078250
 NucSpn=           1           0           1           1           0           1           1           0           1           1
 AtZEff=   0.0000000   0.0000000   0.0000000   0.0000000   0.0000000   0.0000000   0.0000000   0.0000000   0.0000000   0.0000000
 NQMom=    0.0000000   0.0000000   0.0000000   0.0000000   0.0000000   0.0000000   0.0000000   0.0000000   0.0000000   0.0000000
 NMagM=    2.7928460   0.0000000   2.7928460   2.7928460   0.0000000   2.7928460   2.7928460   0.0000000   2.7928460   2.7928460
 AtZNuc=   1.0000000   8.0000000   1.0000000   1.0000000   8.0000000   1.0000000   1.0000000   8.0000000   1.0000000   1.0000000

  Atom        21          22          23          24          25          26          27          28          29          30
 IAtWgt=          16           1           1          16           1           1          16           1           1          16
 AtmWgt=  15.9949146   1.0078250   1.0078250  15.9949146   1.0078250   1.0078250  15.9949146   1.0078250   1.0078250  15.9949146
 NucSpn=           0           1           1           0           1           1           0           1           1           0
 AtZEff=   0.0000000   0.0000000   0.0000000   0.0000000   0.0000000   0.0000000   0.0000000   0.0000000   0.0000000   0.0000000
 NQMom=    0.0000000   0.0000000   0.0000000   0.0000000   0.0000000   0.0000000   0.0000000   0.0000000   0.0000000   0.0000000
 NMagM=    0.0000000   2.7928460   2.7928460   0.0000000   2.7928460   2.7928460   0.0000000   2.7928460   2.7928460   0.0000000
 AtZNuc=   8.0000000   1.0000000   1.0000000   8.0000000   1.0000000   1.0000000   8.0000000   1.0000000   1.0000000   8.0000000

  Atom        31          32          33          34          35          36          37          38          39          40
 IAtWgt=           1           1          16           1           1          16           1           1          16           1
 AtmWgt=   1.0078250   1.0078250  15.9949146   1.0078250   1.0078250  15.9949146   1.0078250   1.0078250  15.9949146   1.0078250
 NucSpn=           1           1           0           1           1           0           1           1           0           1
 AtZEff=   0.0000000   0.0000000   0.0000000   0.0000000   0.0000000   0.0000000   0.0000000   0.0000000   0.0000000   0.0000000
 NQMom=    0.0000000   0.0000000   0.0000000   0.0000000   0.0000000   0.0000000   0.0000000   0.0000000   0.0000000   0.0000000
 NMagM=    2.7928460   2.7928460   0.0000000   2.7928460   2.7928460   0.0000000   2.7928460   2.7928460   0.0000000   2.7928460
 AtZNuc=   1.0000000   1.0000000   8.0000000   1.0000000   1.0000000   8.0000000   1.0000000   1.0000000   8.0000000   1.0000000

  Atom        41          42          43          44          45          46          47          48          49          50
 IAtWgt=           1          16           1           1          16           1           1          16           1           1
 AtmWgt=   1.0078250  15.9949146   1.0078250   1.0078250  15.9949146   1.0078250   1.0078250  15.9949146   1.0078250   1.0078250
 NucSpn=           1           0           1           1           0           1           1           0           1           1
 AtZEff=   0.0000000   0.0000000   0.0000000   0.0000000   0.0000000   0.0000000   0.0000000   0.0000000   0.0000000   0.0000000
 NQMom=    0.0000000   0.0000000   0.0000000   0.0000000   0.0000000   0.0000000   0.0000000   0.0000000   0.0000000   0.0000000
 NMagM=    2.7928460   0.0000000   2.7928460   2.7928460   0.0000000   2.7928460   2.7928460   0.0000000   2.7928460   2.7928460
 AtZNuc=   1.0000000   8.0000000   1.0000000   1.0000000   8.0000000   1.0000000   1.0000000   8.0000000   1.0000000   1.0000000
 Background charge distribution read from input stream:
 Point Charges:
 XYZ=   -4.1612    4.5580   -1.9542 Q=   -0.8200 A=    0.0000 R=    0.0000 C=    0.0000
 XYZ=   -4.5998    5.3546   -1.5380 Q=    0.4100 A=    0.0000 R=    0.0000 C=    0.0000
 XYZ=   -4.6406    3.7275   -1.6708 Q=    0.4100 A=    0.0000 R=    0.0000 C=    0.0000
 XYZ=   -3.7304    2.1599   -5.4628 Q=   -0.8200 A=    0.0000 R=    0.0000 C=    0.0000
 XYZ=   -3.3619    1.3632   -4.9837 Q=    0.4100 A=    0.0000 R=    0.0000 C=    0.0000
 XYZ=   -3.0831    2.9190   -5.3941 Q=    0.4100 A=    0.0000 R=    0.0000 C=    0.0000
 XYZ=   -4.2362    4.8052    1.1777 Q=   -0.8200 A=    0.0000 R=    0.0000 C=    0.0000
 XYZ=   -4.7952    5.4670    0.6782 Q=    0.4100 A=    0.0000 R=    0.0000 C=    0.0000
 XYZ=   -4.4790    4.8285    2.1475 Q=    0.4100 A=    0.0000 R=    0.0000 C=    0.0000
 XYZ=    0.3450   -2.1468    5.9806 Q=   -0.8200 A=    0.0000 R=    0.0000 C=    0.0000
 XYZ=    0.8137   -1.3365    5.6287 Q=    0.4100 A=    0.0000 R=    0.0000 C=    0.0000
 XYZ=   -0.4196   -2.3772    5.3786 Q=    0.4100 A=    0.0000 R=    0.0000 C=    0.0000
 XYZ=    3.1081   -5.8548   -0.4860 Q=   -0.8200 A=    0.0000 R=    0.0000 C=    0.0000
 XYZ=    3.1804   -5.1510    0.2207 Q=    0.4100 A=    0.0000 R=    0.0000 C=    0.0000
 XYZ=    3.7575   -5.6576   -1.2204 Q=    0.4100 A=    0.0000 R=    0.0000 C=    0.0000
 XYZ=   -1.4327   -4.9636    4.2912 Q=   -0.8200 A=    0.0000 R=    0.0000 C=    0.0000
 XYZ=   -0.6716   -4.9283    3.6435 Q=    0.4100 A=    0.0000 R=    0.0000 C=    0.0000
 XYZ=   -1.2673   -5.6878    4.9607 Q=    0.4100 A=    0.0000 R=    0.0000 C=    0.0000
 XYZ=    3.6140    5.9549    1.1746 Q=   -0.8200 A=    0.0000 R=    0.0000 C=    0.0000
 XYZ=    3.3130    5.2485    0.5339 Q=    0.4100 A=    0.0000 R=    0.0000 C=    0.0000
 XYZ=    3.5137    6.8547    0.7499 Q=    0.4100 A=    0.0000 R=    0.0000 C=    0.0000
 XYZ=   -1.8044   -2.6942    5.0441 Q=   -0.8200 A=    0.0000 R=    0.0000 C=    0.0000
 XYZ=   -2.2342   -2.6128    5.9433 Q=    0.4100 A=    0.0000 R=    0.0000 C=    0.0000
 XYZ=   -1.6851   -3.6610    4.8181 Q=    0.4100 A=    0.0000 R=    0.0000 C=    0.0000
 XYZ=   -6.0670    3.4263    0.6742 Q=   -0.8200 A=    0.0000 R=    0.0000 C=    0.0000
 XYZ=   -5.2194    3.8689    0.9670 Q=    0.4100 A=    0.0000 R=    0.0000 C=    0.0000
 XYZ=   -5.9765    3.1289   -0.2763 Q=    0.4100 A=    0.0000 R=    0.0000 C=    0.0000
 XYZ=   -3.8777    5.1117   -4.2511 Q=   -0.8200 A=    0.0000 R=    0.0000 C=    0.0000
 XYZ=   -3.9515    4.9211   -3.2722 Q=    0.4100 A=    0.0000 R=    0.0000 C=    0.0000
 XYZ=   -4.4504    4.4690   -4.7599 Q=    0.4100 A=    0.0000 R=    0.0000 C=    0.0000
 XYZ=   -1.2733    8.2615    0.6657 Q=   -0.8200 A=    0.0000 R=    0.0000 C=    0.0000
 XYZ=   -1.6893    8.8190    1.3842 Q=    0.4100 A=    0.0000 R=    0.0000 C=    0.0000
 XYZ=   -1.7017    7.3579    0.6550 Q=    0.4100 A=    0.0000 R=    0.0000 C=    0.0000
 XYZ=   -5.3617   -1.0745    1.9095 Q=   -0.8200 A=    0.0000 R=    0.0000 C=    0.0000
 XYZ=   -4.8232   -0.2821    2.1961 Q=    0.4100 A=    0.0000 R=    0.0000 C=    0.0000
 XYZ=   -4.9168   -1.9121    2.2265 Q=    0.4100 A=    0.0000 R=    0.0000 C=    0.0000
 XYZ=    5.4439   -3.8619    0.1520 Q=   -0.8200 A=    0.0000 R=    0.0000 C=    0.0000
 XYZ=    4.6234   -3.8643    0.7236 Q=    0.4100 A=    0.0000 R=    0.0000 C=    0.0000
 XYZ=    5.3654   -4.5729   -0.5469 Q=    0.4100 A=    0.0000 R=    0.0000 C=    0.0000
 XYZ=    0.8588    6.4287   -3.3648 Q=   -0.8200 A=    0.0000 R=    0.0000 C=    0.0000
 XYZ=    0.0332    6.9812   -3.2498 Q=    0.4100 A=    0.0000 R=    0.0000 C=    0.0000
 XYZ=    1.1063    6.3967   -4.3332 Q=    0.4100 A=    0.0000 R=    0.0000 C=    0.0000
 XYZ=    1.6882    6.1115    2.5649 Q=   -0.8200 A=    0.0000 R=    0.0000 C=    0.0000
 XYZ=    1.3057    6.9267    2.1300 Q=    0.4100 A=    0.0000 R=    0.0000 C=    0.0000
 XYZ=    2.5196    5.8354    2.0825 Q=    0.4100 A=    0.0000 R=    0.0000 C=    0.0000
 XYZ=   -2.6453   -6.1132    0.8060 Q=   -0.8200 A=    0.0000 R=    0.0000 C=    0.0000
 XYZ=   -2.7863   -7.1028    0.7791 Q=    0.4100 A=    0.0000 R=    0.0000 C=    0.0000
 XYZ=   -2.8645   -5.7209   -0.0874 Q=    0.4100 A=    0.0000 R=    0.0000 C=    0.0000
 XYZ=   -2.2389    3.9505   -5.3709 Q=   -0.8200 A=    0.0000 R=    0.0000 C=    0.0000
 XYZ=   -2.9349    4.4733   -4.8786 Q=    0.4100 A=    0.0000 R=    0.0000 C=    0.0000
 XYZ=   -1.4705    4.5492   -5.5975 Q=    0.4100 A=    0.0000 R=    0.0000 C=    0.0000
 XYZ=    5.8741    2.5566    0.1793 Q=   -0.8200 A=    0.0000 R=    0.0000 C=    0.0000
 XYZ=    6.1115    2.5795   -0.7918 Q=    0.4100 A=    0.0000 R=    0.0000 C=    0.0000
 XYZ=    4.9108    2.3081    0.2811 Q=    0.4100 A=    0.0000 R=    0.0000 C=    0.0000
 XYZ=    3.8203   -2.2425    5.9949 Q=   -0.8200 A=    0.0000 R=    0.0000 C=    0.0000
 XYZ=    3.3936   -2.0500    5.1112 Q=    0.4100 A=    0.0000 R=    0.0000 C=    0.0000
 XYZ=    4.0037   -1.3824    6.4708 Q=    0.4100 A=    0.0000 R=    0.0000 C=    0.0000
 XYZ=   -5.7505    2.6501   -1.6819 Q=   -0.8200 A=    0.0000 R=    0.0000 C=    0.0000
 XYZ=   -5.8288    1.6552   -1.6181 Q=    0.4100 A=    0.0000 R=    0.0000 C=    0.0000
 XYZ=   -6.3059    2.9799   -2.4453 Q=    0.4100 A=    0.0000 R=    0.0000 C=    0.0000
 XYZ=    5.1758   -0.5012    3.1830 Q=   -0.8200 A=    0.0000 R=    0.0000 C=    0.0000
 XYZ=    5.3287    0.4583    3.4199 Q=    0.4100 A=    0.0000 R=    0.0000 C=    0.0000
 XYZ=    5.6340   -0.7081    2.3185 Q=    0.4100 A=    0.0000 R=    0.0000 C=    0.0000
 XYZ=   -0.4161   -6.5738    1.7194 Q=   -0.8200 A=    0.0000 R=    0.0000 C=    0.0000
 XYZ=    0.1912   -6.7850    0.9535 Q=    0.4100 A=    0.0000 R=    0.0000 C=    0.0000
 XYZ=   -1.2947   -6.2498    1.3686 Q=    0.4100 A=    0.0000 R=    0.0000 C=    0.0000
 XYZ=    1.2806   -7.1976    0.1083 Q=   -0.8200 A=    0.0000 R=    0.0000 C=    0.0000
 XYZ=    2.1136   -6.6884   -0.1083 Q=    0.4100 A=    0.0000 R=    0.0000 C=    0.0000
 XYZ=    1.1437   -7.9176   -0.5720 Q=    0.4100 A=    0.0000 R=    0.0000 C=    0.0000
 XYZ=    3.4830    0.2654   -6.8708 Q=   -0.8200 A=    0.0000 R=    0.0000 C=    0.0000
 XYZ=    3.3411    1.1208   -7.3690 Q=    0.4100 A=    0.0000 R=    0.0000 C=    0.0000
 XYZ=    2.6107   -0.0527   -6.4996 Q=    0.4100 A=    0.0000 R=    0.0000 C=    0.0000
 XYZ=    2.4687    7.6524   -2.0552 Q=   -0.8200 A=    0.0000 R=    0.0000 C=    0.0000
 XYZ=    3.2821    7.0739   -2.1164 Q=    0.4100 A=    0.0000 R=    0.0000 C=    0.0000
 XYZ=    1.6807    7.1597   -2.4246 Q=    0.4100 A=    0.0000 R=    0.0000 C=    0.0000
 XYZ=   -4.4286   -1.4574    5.4428 Q=   -0.8200 A=    0.0000 R=    0.0000 C=    0.0000
 XYZ=   -3.7897   -1.2500    4.7020 Q=    0.4100 A=    0.0000 R=    0.0000 C=    0.0000
 XYZ=   -3.9188   -1.7658    6.2460 Q=    0.4100 A=    0.0000 R=    0.0000 C=    0.0000
 XYZ=   -3.4347   -5.0513    3.1561 Q=   -0.8200 A=    0.0000 R=    0.0000 C=    0.0000
 XYZ=   -2.6131   -4.9510    3.7174 Q=    0.4100 A=    0.0000 R=    0.0000 C=    0.0000
 XYZ=   -3.2360   -5.6472    2.3779 Q=    0.4100 A=    0.0000 R=    0.0000 C=    0.0000
 XYZ=   -6.0697    1.4646    4.1987 Q=   -0.8200 A=    0.0000 R=    0.0000 C=    0.0000
 XYZ=   -5.2819    1.1972    3.6437 Q=    0.4100 A=    0.0000 R=    0.0000 C=    0.0000
 XYZ=   -6.4254    0.6636    4.6802 Q=    0.4100 A=    0.0000 R=    0.0000 C=    0.0000
 XYZ=    1.9387   -3.6436    6.6883 Q=   -0.8200 A=    0.0000 R=    0.0000 C=    0.0000
 XYZ=    2.7973   -3.1390    6.5979 Q=    0.4100 A=    0.0000 R=    0.0000 C=    0.0000
 XYZ=    1.1927   -3.1049    6.2966 Q=    0.4100 A=    0.0000 R=    0.0000 C=    0.0000
 XYZ=    0.9455    8.2985    1.3688 Q=   -0.8200 A=    0.0000 R=    0.0000 C=    0.0000
 XYZ=    1.0640    8.9040    2.1558 Q=    0.4100 A=    0.0000 R=    0.0000 C=    0.0000
 XYZ=   -0.0281    8.1136    1.2342 Q=    0.4100 A=    0.0000 R=    0.0000 C=    0.0000
 XYZ=   -5.1931   -3.7091    2.5851 Q=   -0.8200 A=    0.0000 R=    0.0000 C=    0.0000
 XYZ=   -5.5515   -3.4087    3.4691 Q=    0.4100 A=    0.0000 R=    0.0000 C=    0.0000
 XYZ=   -4.3566   -4.2384    2.7271 Q=    0.4100 A=    0.0000 R=    0.0000 C=    0.0000
 XYZ=   -2.7136    7.0766   -4.7077 Q=   -0.8200 A=    0.0000 R=    0.0000 C=    0.0000
 XYZ=   -2.2105    7.0884   -3.8435 Q=    0.4100 A=    0.0000 R=    0.0000 C=    0.0000
 XYZ=   -3.4107    6.3602   -4.6777 Q=    0.4100 A=    0.0000 R=    0.0000 C=    0.0000
 XYZ=    1.9724   -5.2708    4.8461 Q=   -0.8200 A=    0.0000 R=    0.0000 C=    0.0000
 XYZ=    1.2718   -5.9787    4.9364 Q=    0.4100 A=    0.0000 R=    0.0000 C=    0.0000
 XYZ=    2.0669   -4.7828    5.7139 Q=    0.4100 A=    0.0000 R=    0.0000 C=    0.0000
 XYZ=    2.8482    1.1761    6.2278 Q=   -0.8200 A=    0.0000 R=    0.0000 C=    0.0000
 XYZ=    3.5613    0.5237    6.4848 Q=    0.4100 A=    0.0000 R=    0.0000 C=    0.0000
 XYZ=    3.2686    2.0493    5.9810 Q=    0.4100 A=    0.0000 R=    0.0000 C=    0.0000
 XYZ=    1.7423    6.6248    5.1542 Q=   -0.8200 A=    0.0000 R=    0.0000 C=    0.0000
 XYZ=    1.5353    6.2134    4.2665 Q=    0.4100 A=    0.0000 R=    0.0000 C=    0.0000
 XYZ=    1.4113    6.0267    5.8841 Q=    0.4100 A=    0.0000 R=    0.0000 C=    0.0000
 XYZ=   -6.3748    0.3292   -1.6553 Q=   -0.8200 A=    0.0000 R=    0.0000 C=    0.0000
 XYZ=   -6.3848   -0.0744   -2.5702 Q=    0.4100 A=    0.0000 R=    0.0000 C=    0.0000
 XYZ=   -6.2025   -0.3857   -0.9775 Q=    0.4100 A=    0.0000 R=    0.0000 C=    0.0000
 XYZ=    4.9344   -0.2248   -4.8199 Q=   -0.8200 A=    0.0000 R=    0.0000 C=    0.0000
 XYZ=    4.4242    0.2410   -5.5429 Q=    0.4100 A=    0.0000 R=    0.0000 C=    0.0000
 XYZ=    5.6079    0.4030   -4.4298 Q=    0.4100 A=    0.0000 R=    0.0000 C=    0.0000
 XYZ=    3.7307   -5.8677    3.1801 Q=   -0.8200 A=    0.0000 R=    0.0000 C=    0.0000
 XYZ=    3.1120   -5.5590    3.9026 Q=    0.4100 A=    0.0000 R=    0.0000 C=    0.0000
 XYZ=    3.6071   -6.8490    3.0322 Q=    0.4100 A=    0.0000 R=    0.0000 C=    0.0000
 XYZ=   -5.4400    3.6222   -5.3907 Q=   -0.8200 A=    0.0000 R=    0.0000 C=    0.0000
 XYZ=   -5.6060    3.8493   -6.3503 Q=    0.4100 A=    0.0000 R=    0.0000 C=    0.0000
 XYZ=   -4.7316    2.9188   -5.3324 Q=    0.4100 A=    0.0000 R=    0.0000 C=    0.0000
 XYZ=    5.7201   -2.3567    4.5464 Q=   -0.8200 A=    0.0000 R=    0.0000 C=    0.0000
 XYZ=    5.5532   -1.5392    3.9951 Q=    0.4100 A=    0.0000 R=    0.0000 C=    0.0000
 XYZ=    4.9357   -2.5210    5.1446 Q=    0.4100 A=    0.0000 R=    0.0000 C=    0.0000
 XYZ=   -5.4336    6.2327   -0.9325 Q=   -0.8200 A=    0.0000 R=    0.0000 C=    0.0000
 XYZ=   -5.2099    7.2074   -0.9364 Q=    0.4100 A=    0.0000 R=    0.0000 C=    0.0000
 XYZ=   -6.3387    6.0969   -1.3356 Q=    0.4100 A=    0.0000 R=    0.0000 C=    0.0000
 XYZ=    5.1306   -5.3114   -1.6885 Q=   -0.8200 A=    0.0000 R=    0.0000 C=    0.0000
 XYZ=    5.7137   -6.1212   -1.6232 Q=    0.4100 A=    0.0000 R=    0.0000 C=    0.0000
 XYZ=    5.2617   -4.8773   -2.5797 Q=    0.4100 A=    0.0000 R=    0.0000 C=    0.0000
 XYZ=   -0.8365   -1.4057    7.8915 Q=   -0.8200 A=    0.0000 R=    0.0000 C=    0.0000
 XYZ=   -0.4225   -1.6938    7.0280 Q=    0.4100 A=    0.0000 R=    0.0000 C=    0.0000
 XYZ=   -0.4289   -1.9215    8.6450 Q=    0.4100 A=    0.0000 R=    0.0000 C=    0.0000
 XYZ=   -6.2580   -1.4831   -0.1458 Q=   -0.8200 A=    0.0000 R=    0.0000 C=    0.0000
 XYZ=   -5.9401   -1.2674    0.7774 Q=    0.4100 A=    0.0000 R=    0.0000 C=    0.0000
 XYZ=   -6.3738   -2.4724   -0.2357 Q=    0.4100 A=    0.0000 R=    0.0000 C=    0.0000
 XYZ=   -1.1476    9.0297   -1.5624 Q=   -0.8200 A=    0.0000 R=    0.0000 C=    0.0000
 XYZ=   -0.2147    9.2458   -1.8507 Q=    0.4100 A=    0.0000 R=    0.0000 C=    0.0000
 XYZ=   -1.1441    8.7554   -0.6008 Q=    0.4100 A=    0.0000 R=    0.0000 C=    0.0000
 XYZ=    6.0811   -2.1175   -4.3109 Q=   -0.8200 A=    0.0000 R=    0.0000 C=    0.0000
 XYZ=    6.7219   -1.7945   -3.6144 Q=    0.4100 A=    0.0000 R=    0.0000 C=    0.0000
 XYZ=    5.4639   -1.3733   -4.5667 Q=    0.4100 A=    0.0000 R=    0.0000 C=    0.0000
 XYZ=    6.9710   -2.1572   -0.5777 Q=   -0.8200 A=    0.0000 R=    0.0000 C=    0.0000
 XYZ=    6.4100   -2.9302   -0.2813 Q=    0.4100 A=    0.0000 R=    0.0000 C=    0.0000
 XYZ=    7.8447   -2.4945   -0.9282 Q=    0.4100 A=    0.0000 R=    0.0000 C=    0.0000
 XYZ=    4.3217    6.2009   -2.0402 Q=   -0.8200 A=    0.0000 R=    0.0000 C=    0.0000
 XYZ=    4.8789    6.8701   -1.5485 Q=    0.4100 A=    0.0000 R=    0.0000 C=    0.0000
 XYZ=    4.9167    5.5989   -2.5727 Q=    0.4100 A=    0.0000 R=    0.0000 C=    0.0000
 XYZ=   -5.0909    5.1946    3.2711 Q=   -0.8200 A=    0.0000 R=    0.0000 C=    0.0000
 XYZ=   -5.8810    5.7774    3.0812 Q=    0.4100 A=    0.0000 R=    0.0000 C=    0.0000
 XYZ=   -5.3391    4.5093    3.9558 Q=    0.4100 A=    0.0000 R=    0.0000 C=    0.0000
 XYZ=    3.0117    8.0836    0.2494 Q=   -0.8200 A=    0.0000 R=    0.0000 C=    0.0000
 XYZ=    2.1835    8.3004    0.7663 Q=    0.4100 A=    0.0000 R=    0.0000 C=    0.0000
 XYZ=    2.7792    7.9582   -0.7152 Q=    0.4100 A=    0.0000 R=    0.0000 C=    0.0000
 XYZ=    1.5808    2.9235    7.4765 Q=   -0.8200 A=    0.0000 R=    0.0000 C=    0.0000
 XYZ=    2.0266    2.1370    7.0491 Q=    0.4100 A=    0.0000 R=    0.0000 C=    0.0000
 XYZ=    0.6213    2.7059    7.6559 Q=    0.4100 A=    0.0000 R=    0.0000 C=    0.0000
 XYZ=    1.5587    6.0402   -5.5670 Q=   -0.8200 A=    0.0000 R=    0.0000 C=    0.0000
 XYZ=    2.5499    6.0834   -5.6924 Q=    0.4100 A=    0.0000 R=    0.0000 C=    0.0000
 XYZ=    1.2032    5.2138   -6.0036 Q=    0.4100 A=    0.0000 R=    0.0000 C=    0.0000
 XYZ=   -4.2099    1.9759   -7.9390 Q=   -0.8200 A=    0.0000 R=    0.0000 C=    0.0000
 XYZ=   -4.3630    1.0881   -8.3729 Q=    0.4100 A=    0.0000 R=    0.0000 C=    0.0000
 XYZ=   -4.1974    1.8636   -6.9454 Q=    0.4100 A=    0.0000 R=    0.0000 C=    0.0000
 XYZ=    5.8492   -4.4302   -3.8987 Q=   -0.8200 A=    0.0000 R=    0.0000 C=    0.0000
 XYZ=    5.6731   -3.4627   -4.0804 Q=    0.4100 A=    0.0000 R=    0.0000 C=    0.0000
 XYZ=    5.6380   -4.9666   -4.7158 Q=    0.4100 A=    0.0000 R=    0.0000 C=    0.0000
 XYZ=    6.8175   -1.1500    1.5875 Q=   -0.8200 A=    0.0000 R=    0.0000 C=    0.0000
 XYZ=    6.8568   -1.4952    0.6497 Q=    0.4100 A=    0.0000 R=    0.0000 C=    0.0000
 XYZ=    6.9986   -1.8982    2.2258 Q=    0.4100 A=    0.0000 R=    0.0000 C=    0.0000
 XYZ=   -5.1280   -5.3419   -1.0524 Q=   -0.8200 A=    0.0000 R=    0.0000 C=    0.0000
 XYZ=   -5.2727   -5.2425   -2.0369 Q=    0.4100 A=    0.0000 R=    0.0000 C=    0.0000
 XYZ=   -5.1506   -6.3115   -0.8084 Q=    0.4100 A=    0.0000 R=    0.0000 C=    0.0000
 XYZ=   -0.7640    5.8110   -6.0149 Q=   -0.8200 A=    0.0000 R=    0.0000 C=    0.0000
 XYZ=    0.1762    6.0967   -5.8295 Q=    0.4100 A=    0.0000 R=    0.0000 C=    0.0000
 XYZ=   -1.3981    6.4329   -5.5552 Q=    0.4100 A=    0.0000 R=    0.0000 C=    0.0000
 XYZ=    5.8522    1.4969    4.2510 Q=   -0.8200 A=    0.0000 R=    0.0000 C=    0.0000
 XYZ=    6.0478    0.7593    4.8973 Q=    0.4100 A=    0.0000 R=    0.0000 C=    0.0000
 XYZ=    5.2296    2.1549    4.6747 Q=    0.4100 A=    0.0000 R=    0.0000 C=    0.0000
 XYZ=    5.9387   -5.2728    2.3954 Q=   -0.8200 A=    0.0000 R=    0.0000 C=    0.0000
 XYZ=    5.7182   -4.7692    1.5600 Q=    0.4100 A=    0.0000 R=    0.0000 C=    0.0000
 XYZ=    5.1093   -5.6998    2.7558 Q=    0.4100 A=    0.0000 R=    0.0000 C=    0.0000
 XYZ=    4.5605    2.8454    5.5673 Q=   -0.8200 A=    0.0000 R=    0.0000 C=    0.0000
 XYZ=    5.2169    2.6603    6.2986 Q=    0.4100 A=    0.0000 R=    0.0000 C=    0.0000
 XYZ=    4.4631    3.8337    5.4492 Q=    0.4100 A=    0.0000 R=    0.0000 C=    0.0000
 XYZ=   -1.4606    0.8501    8.0480 Q=   -0.8200 A=    0.0000 R=    0.0000 C=    0.0000
 XYZ=   -1.1201   -0.0902    8.0566 Q=    0.4100 A=    0.0000 R=    0.0000 C=    0.0000
 XYZ=   -2.2499    0.9131    7.4372 Q=    0.4100 A=    0.0000 R=    0.0000 C=    0.0000
 XYZ=   -6.2983   -4.0983    0.3857 Q=   -0.8200 A=    0.0000 R=    0.0000 C=    0.0000
 XYZ=   -5.7464   -4.6147   -0.2691 Q=    0.4100 A=    0.0000 R=    0.0000 C=    0.0000
 XYZ=   -5.7637   -3.9321    1.2143 Q=    0.4100 A=    0.0000 R=    0.0000 C=    0.0000
 XYZ=   -0.2437   -8.4225    3.0656 Q=   -0.8200 A=    0.0000 R=    0.0000 C=    0.0000
 XYZ=   -0.3249   -7.5899    2.5178 Q=    0.4100 A=    0.0000 R=    0.0000 C=    0.0000
 XYZ=    0.6708   -8.8100    2.9495 Q=    0.4100 A=    0.0000 R=    0.0000 C=    0.0000
 XYZ=    7.4080   -0.9565   -2.5257 Q=   -0.8200 A=    0.0000 R=    0.0000 C=    0.0000
 XYZ=    8.3342   -0.7201   -2.2318 Q=    0.4100 A=    0.0000 R=    0.0000 C=    0.0000
 XYZ=    6.9491   -1.4701   -1.8006 Q=    0.4100 A=    0.0000 R=    0.0000 C=    0.0000
 XYZ=    1.2702    5.2130    6.9586 Q=   -0.8200 A=    0.0000 R=    0.0000 C=    0.0000
 XYZ=    1.4354    5.6288    7.8530 Q=    0.4100 A=    0.0000 R=    0.0000 C=    0.0000
 XYZ=    1.5705    4.2593    6.9738 Q=    0.4100 A=    0.0000 R=    0.0000 C=    0.0000
 XYZ=   -7.6080    5.0228    1.2052 Q=   -0.8200 A=    0.0000 R=    0.0000 C=    0.0000
 XYZ=   -7.0015    4.2848    0.9094 Q=    0.4100 A=    0.0000 R=    0.0000 C=    0.0000
 XYZ=   -8.3472    4.6437    1.7620 Q=    0.4100 A=    0.0000 R=    0.0000 C=    0.0000
 XYZ=    6.2962    2.5419   -2.0094 Q=   -0.8200 A=    0.0000 R=    0.0000 C=    0.0000
 XYZ=    5.8473    3.3992   -2.2616 Q=    0.4100 A=    0.0000 R=    0.0000 C=    0.0000
 XYZ=    6.2901    1.9195   -2.7922 Q=    0.4100 A=    0.0000 R=    0.0000 C=    0.0000
 XYZ=   -7.5283    2.0368    2.2552 Q=   -0.8200 A=    0.0000 R=    0.0000 C=    0.0000
 XYZ=   -7.0582    2.6976    1.6701 Q=    0.4100 A=    0.0000 R=    0.0000 C=    0.0000
 XYZ=   -6.9957    1.8919    3.0891 Q=    0.4100 A=    0.0000 R=    0.0000 C=    0.0000
 XYZ=    5.4980    5.7283    2.7729 Q=   -0.8200 A=    0.0000 R=    0.0000 C=    0.0000
 XYZ=    5.0628    5.6957    3.6726 Q=    0.4100 A=    0.0000 R=    0.0000 C=    0.0000
 XYZ=    4.8107    5.9389    2.0777 Q=    0.4100 A=    0.0000 R=    0.0000 C=    0.0000
 XYZ=    6.7692    3.9657    1.7789 Q=   -0.8200 A=    0.0000 R=    0.0000 C=    0.0000
 XYZ=    6.0635    4.6202    2.0504 Q=    0.4100 A=    0.0000 R=    0.0000 C=    0.0000
 XYZ=    6.3760    3.2923    1.1527 Q=    0.4100 A=    0.0000 R=    0.0000 C=    0.0000
 XYZ=   -7.5805   -0.3651    1.8728 Q=   -0.8200 A=    0.0000 R=    0.0000 C=    0.0000
 XYZ=   -6.6313   -0.6752    1.8194 Q=    0.4100 A=    0.0000 R=    0.0000 C=    0.0000
 XYZ=   -7.6035    0.6343    1.9015 Q=    0.4100 A=    0.0000 R=    0.0000 C=    0.0000
 XYZ=    1.2578    9.6745   -1.9899 Q=   -0.8200 A=    0.0000 R=    0.0000 C=    0.0000
 XYZ=    1.0773    9.9647   -2.9296 Q=    0.4100 A=    0.0000 R=    0.0000 C=    0.0000
 XYZ=    1.8176    8.8459   -1.9987 Q=    0.4100 A=    0.0000 R=    0.0000 C=    0.0000
 XYZ=   -6.1629    3.7919    4.9313 Q=   -0.8200 A=    0.0000 R=    0.0000 C=    0.0000
 XYZ=   -6.2494    3.7911    5.9276 Q=    0.4100 A=    0.0000 R=    0.0000 C=    0.0000
 XYZ=   -6.0572    2.8525    4.6052 Q=    0.4100 A=    0.0000 R=    0.0000 C=    0.0000
 XYZ=   -2.8990   -2.2540    7.0153 Q=   -0.8200 A=    0.0000 R=    0.0000 C=    0.0000
 XYZ=   -2.2268   -1.6471    7.4394 Q=    0.4100 A=    0.0000 R=    0.0000 C=    0.0000
 XYZ=   -2.9548   -3.1056    7.5366 Q=    0.4100 A=    0.0000 R=    0.0000 C=    0.0000
 XYZ=   -4.3131    6.7665    5.0862 Q=   -0.8200 A=    0.0000 R=    0.0000 C=    0.0000
 XYZ=   -5.2155    7.0729    5.3891 Q=    0.4100 A=    0.0000 R=    0.0000 C=    0.0000
 XYZ=   -4.4185    6.0411    4.4060 Q=    0.4100 A=    0.0000 R=    0.0000 C=    0.0000
 XYZ=   -6.8994    3.5787   -3.4949 Q=   -0.8200 A=    0.0000 R=    0.0000 C=    0.0000
 XYZ=   -6.3568    3.5525   -4.3344 Q=    0.4100 A=    0.0000 R=    0.0000 C=    0.0000
 XYZ=   -7.8550    3.3764   -3.7093 Q=    0.4100 A=    0.0000 R=    0.0000 C=    0.0000
 XYZ=   -4.5575    8.4472   -0.6775 Q=   -0.8200 A=    0.0000 R=    0.0000 C=    0.0000
 XYZ=   -3.9670    8.9215   -1.3305 Q=    0.4100 A=    0.0000 R=    0.0000 C=    0.0000
 XYZ=   -5.0544    9.1193   -0.1283 Q=    0.4100 A=    0.0000 R=    0.0000 C=    0.0000
 XYZ=   -7.0689    5.6539   -2.5667 Q=   -0.8200 A=    0.0000 R=    0.0000 C=    0.0000
 XYZ=   -6.5064    6.2298   -3.1599 Q=    0.4100 A=    0.0000 R=    0.0000 C=    0.0000
 XYZ=   -6.9542    4.6951   -2.8269 Q=    0.4100 A=    0.0000 R=    0.0000 C=    0.0000
 XYZ=   -0.2962   -5.7805   -7.8384 Q=   -0.8200 A=    0.0000 R=    0.0000 C=    0.0000
 XYZ=    0.0799   -5.0056   -7.3303 Q=    0.4100 A=    0.0000 R=    0.0000 C=    0.0000
 XYZ=   -0.9574   -6.2652   -7.2657 Q=    0.4100 A=    0.0000 R=    0.0000 C=    0.0000
 XYZ=   -1.3514    5.1076   -8.1248 Q=   -0.8200 A=    0.0000 R=    0.0000 C=    0.0000
 XYZ=   -1.0296    5.3359   -7.2059 Q=    0.4100 A=    0.0000 R=    0.0000 C=    0.0000
 XYZ=   -2.1974    5.6057   -8.3149 Q=    0.4100 A=    0.0000 R=    0.0000 C=    0.0000
 XYZ=    0.3169   -6.9690    5.0649 Q=   -0.8200 A=    0.0000 R=    0.0000 C=    0.0000
 XYZ=   -0.5245   -6.8919    5.5999 Q=    0.4100 A=    0.0000 R=    0.0000 C=    0.0000
 XYZ=    0.2446   -7.7465    4.4402 Q=    0.4100 A=    0.0000 R=    0.0000 C=    0.0000
 XYZ=    8.0717    1.1321    1.1096 Q=   -0.8200 A=    0.0000 R=    0.0000 C=    0.0000
 XYZ=    7.8880    1.7030    1.9098 Q=    0.4100 A=    0.0000 R=    0.0000 C=    0.0000
 XYZ=    7.4418    0.3553    1.1028 Q=    0.4100 A=    0.0000 R=    0.0000 C=    0.0000
 XYZ=    4.5732    5.1762    5.1189 Q=   -0.8200 A=    0.0000 R=    0.0000 C=    0.0000
 XYZ=    5.3412    5.2812    5.7506 Q=    0.4100 A=    0.0000 R=    0.0000 C=    0.0000
 XYZ=    3.8391    5.8033    5.3796 Q=    0.4100 A=    0.0000 R=    0.0000 C=    0.0000
 XYZ=    7.2587   -3.1082    2.8569 Q=   -0.8200 A=    0.0000 R=    0.0000 C=    0.0000
 XYZ=    6.9093   -2.7171    3.7083 Q=    0.4100 A=    0.0000 R=    0.0000 C=    0.0000
 XYZ=    6.7948   -3.9748    2.6732 Q=    0.4100 A=    0.0000 R=    0.0000 C=    0.0000
 XYZ=    6.7273    0.9722   -3.6879 Q=   -0.8200 A=    0.0000 R=    0.0000 C=    0.0000
 XYZ=    7.2917    0.9926   -4.5132 Q=    0.4100 A=    0.0000 R=    0.0000 C=    0.0000
 XYZ=    7.0297    0.2252   -3.0958 Q=    0.4100 A=    0.0000 R=    0.0000 C=    0.0000
 XYZ=   -5.0688   -6.3560    4.3209 Q=   -0.8200 A=    0.0000 R=    0.0000 C=    0.0000
 XYZ=   -4.5187   -5.8063    3.6923 Q=    0.4100 A=    0.0000 R=    0.0000 C=    0.0000
 XYZ=   -5.7149   -5.7644    4.8031 Q=    0.4100 A=    0.0000 R=    0.0000 C=    0.0000
 XYZ=   -1.0355    5.0312    7.7261 Q=   -0.8200 A=    0.0000 R=    0.0000 C=    0.0000
 XYZ=   -0.2463    5.4171    7.2482 Q=    0.4100 A=    0.0000 R=    0.0000 C=    0.0000
 XYZ=   -0.8396    4.0848    7.9828 Q=    0.4100 A=    0.0000 R=    0.0000 C=    0.0000
 XYZ=    5.8462    4.7672   -3.1202 Q=   -0.8200 A=    0.0000 R=    0.0000 C=    0.0000
 XYZ=    6.7708    5.0141   -2.8298 Q=    0.4100 A=    0.0000 R=    0.0000 C=    0.0000
 XYZ=    5.8907    4.2699   -3.9867 Q=    0.4100 A=    0.0000 R=    0.0000 C=    0.0000
 XYZ=    5.0386   -1.1853   -7.8245 Q=   -0.8200 A=    0.0000 R=    0.0000 C=    0.0000
 XYZ=    5.2349   -1.9468   -7.2067 Q=    0.4100 A=    0.0000 R=    0.0000 C=    0.0000
 XYZ=    4.5033   -0.4930   -7.3405 Q=    0.4100 A=    0.0000 R=    0.0000 C=    0.0000
 XYZ=   -5.8451   -5.4472   -3.4963 Q=   -0.8200 A=    0.0000 R=    0.0000 C=    0.0000
 XYZ=   -5.4811   -4.9814   -4.3029 Q=    0.4100 A=    0.0000 R=    0.0000 C=    0.0000
 XYZ=   -6.8327   -5.5673   -3.5981 Q=    0.4100 A=    0.0000 R=    0.0000 C=    0.0000
 XYZ=   -6.1095   -3.0640    4.5888 Q=   -0.8200 A=    0.0000 R=    0.0000 C=    0.0000
 XYZ=   -6.9419   -2.5885    4.3042 Q=    0.4100 A=    0.0000 R=    0.0000 C=    0.0000
 XYZ=   -5.5758   -2.4703    5.1909 Q=    0.4100 A=    0.0000 R=    0.0000 C=    0.0000
 XYZ=    4.5959   -0.2538    6.9895 Q=   -0.8200 A=    0.0000 R=    0.0000 C=    0.0000
 XYZ=    4.9025   -0.4093    7.9285 Q=    0.4100 A=    0.0000 R=    0.0000 C=    0.0000
 XYZ=    5.3660   -0.3749    6.3631 Q=    0.4100 A=    0.0000 R=    0.0000 C=    0.0000
 XYZ=   -2.3101    3.2224   -8.9967 Q=   -0.8200 A=    0.0000 R=    0.0000 C=    0.0000
 XYZ=   -3.0477    2.8283   -8.4482 Q=    0.4100 A=    0.0000 R=    0.0000 C=    0.0000
 XYZ=   -1.8925    3.9815   -8.4973 Q=    0.4100 A=    0.0000 R=    0.0000 C=    0.0000
 XYZ=    7.6707    2.3692    3.0314 Q=   -0.8200 A=    0.0000 R=    0.0000 C=    0.0000
 XYZ=    7.4175    3.1668    2.4840 Q=    0.4100 A=    0.0000 R=    0.0000 C=    0.0000
 XYZ=    6.8568    2.0022    3.4820 Q=    0.4100 A=    0.0000 R=    0.0000 C=    0.0000
 XYZ=    2.3258    4.1301   -7.9360 Q=   -0.8200 A=    0.0000 R=    0.0000 C=    0.0000
 XYZ=    2.8091    4.9546   -7.6415 Q=    0.4100 A=    0.0000 R=    0.0000 C=    0.0000
 XYZ=    2.9839    3.3902   -8.0760 Q=    0.4100 A=    0.0000 R=    0.0000 C=    0.0000
 XYZ=   -3.0012   -8.3150    0.5677 Q=   -0.8200 A=    0.0000 R=    0.0000 C=    0.0000
 XYZ=   -3.6767   -8.0527   -0.1214 Q=    0.4100 A=    0.0000 R=    0.0000 C=    0.0000
 XYZ=   -2.3932   -9.0132    0.1896 Q=    0.4100 A=    0.0000 R=    0.0000 C=    0.0000
 XYZ=   -0.5911    2.8448    8.6844 Q=   -0.8200 A=    0.0000 R=    0.0000 C=    0.0000
 XYZ=   -1.0270    1.9521    8.5703 Q=    0.4100 A=    0.0000 R=    0.0000 C=    0.0000
 XYZ=   -0.3104    2.9593    9.6373 Q=    0.4100 A=    0.0000 R=    0.0000 C=    0.0000
 XYZ=   -3.1318    6.1059    7.1232 Q=   -0.8200 A=    0.0000 R=    0.0000 C=    0.0000
 XYZ=   -3.3710    6.4026    6.1987 Q=    0.4100 A=    0.0000 R=    0.0000 C=    0.0000
 XYZ=   -2.3067    5.5419    7.0892 Q=    0.4100 A=    0.0000 R=    0.0000 C=    0.0000
 XYZ=    5.7980   -3.2078   -6.4460 Q=   -0.8200 A=    0.0000 R=    0.0000 C=    0.0000
 XYZ=    6.1489   -2.7229   -5.6449 Q=    0.4100 A=    0.0000 R=    0.0000 C=    0.0000
 XYZ=    6.5608   -3.4717   -7.0364 Q=    0.4100 A=    0.0000 R=    0.0000 C=    0.0000
 XYZ=   -3.3669    9.9854   -2.1510 Q=   -0.8200 A=    0.0000 R=    0.0000 C=    0.0000
 XYZ=   -3.6518   10.6959   -1.5075 Q=    0.4100 A=    0.0000 R=    0.0000 C=    0.0000
 XYZ=   -2.4183    9.7287   -1.9655 Q=    0.4100 A=    0.0000 R=    0.0000 C=    0.0000
 XYZ=    3.4239    2.0793   -8.3501 Q=   -0.8200 A=    0.0000 R=    0.0000 C=    0.0000
 XYZ=    4.4217    2.1139   -8.2933 Q=    0.4100 A=    0.0000 R=    0.0000 C=    0.0000
 XYZ=    3.1466    2.0200   -9.3091 Q=    0.4100 A=    0.0000 R=    0.0000 C=    0.0000
 XYZ=    7.8490   -4.7514   -2.7222 Q=   -0.8200 A=    0.0000 R=    0.0000 C=    0.0000
 XYZ=    7.0439   -4.3861   -3.1894 Q=    0.4100 A=    0.0000 R=    0.0000 C=    0.0000
 XYZ=    8.6320   -4.7333   -3.3440 Q=    0.4100 A=    0.0000 R=    0.0000 C=    0.0000
 XYZ=    1.0712   -4.3531    8.6773 Q=   -0.8200 A=    0.0000 R=    0.0000 C=    0.0000
 XYZ=    1.5989   -3.9333    7.9388 Q=    0.4100 A=    0.0000 R=    0.0000 C=    0.0000
 XYZ=    1.6853   -4.8706    9.2733 Q=    0.4100 A=    0.0000 R=    0.0000 C=    0.0000
 XYZ=   -9.0050    1.0945   -1.3494 Q=   -0.8200 A=    0.0000 R=    0.0000 C=    0.0000
 XYZ=   -9.1990    2.0467   -1.5854 Q=    0.4100 A=    0.0000 R=    0.0000 C=    0.0000
 XYZ=   -8.0410    0.8967   -1.5278 Q=    0.4100 A=    0.0000 R=    0.0000 C=    0.0000
 XYZ=   -3.1500    9.5018   -4.3937 Q=   -0.8200 A=    0.0000 R=    0.0000 C=    0.0000
 XYZ=   -3.4274    9.6417   -3.4431 Q=    0.4100 A=    0.0000 R=    0.0000 C=    0.0000
 XYZ=   -3.0661    8.5220   -4.5756 Q=    0.4100 A=    0.0000 R=    0.0000 C=    0.0000
 XYZ=    5.4219    7.6902   -0.8083 Q=   -0.8200 A=    0.0000 R=    0.0000 C=    0.0000
 XYZ=    4.6491    8.2042   -0.4360 Q=    0.4100 A=    0.0000 R=    0.0000 C=    0.0000
 XYZ=    6.2115    7.7904   -0.2029 Q=    0.4100 A=    0.0000 R=    0.0000 C=    0.0000
 XYZ=   -1.1294   -0.6025  -10.3517 Q=   -0.8200 A=    0.0000 R=    0.0000 C=    0.0000
 XYZ=   -0.9993   -1.5731  -10.5543 Q=    0.4100 A=    0.0000 R=    0.0000 C=    0.0000
 XYZ=   -1.6575   -0.5061   -9.5079 Q=    0.4100 A=    0.0000 R=    0.0000 C=    0.0000
 XYZ=   -6.8630   -0.4720    5.7684 Q=   -0.8200 A=    0.0000 R=    0.0000 C=    0.0000
 XYZ=   -7.4647   -1.0813    5.2520 Q=    0.4100 A=    0.0000 R=    0.0000 C=    0.0000
 XYZ=   -5.9520   -0.8795    5.8333 Q=    0.4100 A=    0.0000 R=    0.0000 C=    0.0000
 XYZ=    6.5132   -0.2170    5.7259 Q=   -0.8200 A=    0.0000 R=    0.0000 C=    0.0000
 XYZ=    6.9863    0.0416    6.5681 Q=    0.4100 A=    0.0000 R=    0.0000 C=    0.0000
 XYZ=    6.6932   -1.1799    5.5248 Q=    0.4100 A=    0.0000 R=    0.0000 C=    0.0000
 XYZ=   -6.7970    6.5393    2.7211 Q=   -0.8200 A=    0.0000 R=    0.0000 C=    0.0000
 XYZ=   -7.4883    6.4828    3.4415 Q=    0.4100 A=    0.0000 R=    0.0000 C=    0.0000
 XYZ=   -7.1708    6.1686    1.8708 Q=    0.4100 A=    0.0000 R=    0.0000 C=    0.0000
 XYZ=    8.3590    1.7143   -1.0610 Q=   -0.8200 A=    0.0000 R=    0.0000 C=    0.0000
 XYZ=    7.5169    2.0554   -1.4788 Q=    0.4100 A=    0.0000 R=    0.0000 C=    0.0000
 XYZ=    8.1615    1.3770   -0.1406 Q=    0.4100 A=    0.0000 R=    0.0000 C=    0.0000
 XYZ=    0.9599    8.8367    5.5894 Q=   -0.8200 A=    0.0000 R=    0.0000 C=    0.0000
 XYZ=    1.2680    7.8979    5.4349 Q=    0.4100 A=    0.0000 R=    0.0000 C=    0.0000
 XYZ=    0.0577    8.8247    6.0205 Q=    0.4100 A=    0.0000 R=    0.0000 C=    0.0000
 XYZ=   -4.2071   -6.2777   -6.1335 Q=   -0.8200 A=    0.0000 R=    0.0000 C=    0.0000
 XYZ=   -4.6987   -5.4242   -5.9606 Q=    0.4100 A=    0.0000 R=    0.0000 C=    0.0000
 XYZ=   -4.4223   -6.9379   -5.4139 Q=    0.4100 A=    0.0000 R=    0.0000 C=    0.0000
 XYZ=   -1.4768   -6.6458    6.3143 Q=   -0.8200 A=    0.0000 R=    0.0000 C=    0.0000
 XYZ=   -1.4155   -6.2894    7.2466 Q=    0.4100 A=    0.0000 R=    0.0000 C=    0.0000
 XYZ=   -2.4069   -6.9704    6.1420 Q=    0.4100 A=    0.0000 R=    0.0000 C=    0.0000
 XYZ=   -5.5349    3.9195   -7.7438 Q=   -0.8200 A=    0.0000 R=    0.0000 C=    0.0000
 XYZ=   -5.3310    4.5973   -8.4503 Q=    0.4100 A=    0.0000 R=    0.0000 C=    0.0000
 XYZ=   -4.9363    3.1269   -7.8598 Q=    0.4100 A=    0.0000 R=    0.0000 C=    0.0000
 XYZ=   -2.0044   -7.1666   -6.7388 Q=   -0.8200 A=    0.0000 R=    0.0000 C=    0.0000
 XYZ=   -2.3167   -7.4126   -7.6564 Q=    0.4100 A=    0.0000 R=    0.0000 C=    0.0000
 XYZ=   -2.7915   -6.9169   -6.1747 Q=    0.4100 A=    0.0000 R=    0.0000 C=    0.0000
 XYZ=   -5.1913   -7.5089   -0.5594 Q=   -0.8200 A=    0.0000 R=    0.0000 C=    0.0000
 XYZ=   -5.9540   -7.5176    0.0874 Q=    0.4100 A=    0.0000 R=    0.0000 C=    0.0000
 XYZ=   -5.2484   -8.3119   -1.1527 Q=    0.4100 A=    0.0000 R=    0.0000 C=    0.0000
 XYZ=   -1.9810    9.8688    2.5735 Q=   -0.8200 A=    0.0000 R=    0.0000 C=    0.0000
 XYZ=   -2.5552    9.5815    3.3402 Q=    0.4100 A=    0.0000 R=    0.0000 C=    0.0000
 XYZ=   -2.3552   10.7047    2.1718 Q=    0.4100 A=    0.0000 R=    0.0000 C=    0.0000
 XYZ=    0.5596    4.8181   -9.4132 Q=   -0.8200 A=    0.0000 R=    0.0000 C=    0.0000
 XYZ=   -0.3233    4.8985   -8.9507 Q=    0.4100 A=    0.0000 R=    0.0000 C=    0.0000
 XYZ=    1.2198    4.3865   -8.7983 Q=    0.4100 A=    0.0000 R=    0.0000 C=    0.0000
 XYZ=   -5.1503   -7.5398   -4.2728 Q=   -0.8200 A=    0.0000 R=    0.0000 C=    0.0000
 XYZ=   -5.4472   -6.6986   -3.8209 Q=    0.4100 A=    0.0000 R=    0.0000 C=    0.0000
 XYZ=   -5.9502   -8.0414   -4.6023 Q=    0.4100 A=    0.0000 R=    0.0000 C=    0.0000
 XYZ=   -8.7829    4.8383   -0.8279 Q=   -0.8200 A=    0.0000 R=    0.0000 C=    0.0000
 XYZ=   -8.4276    5.4096   -1.5677 Q=    0.4100 A=    0.0000 R=    0.0000 C=    0.0000
 XYZ=   -8.2982    5.0519    0.0203 Q=    0.4100 A=    0.0000 R=    0.0000 C=    0.0000
 XYZ=    3.8775    5.9345   -6.4393 Q=   -0.8200 A=    0.0000 R=    0.0000 C=    0.0000
 XYZ=    4.6804    5.4426   -6.1027 Q=    0.4100 A=    0.0000 R=    0.0000 C=    0.0000
 XYZ=    4.1635    6.8056   -6.8385 Q=    0.4100 A=    0.0000 R=    0.0000 C=    0.0000
 XYZ=    2.6411    3.6314    9.5375 Q=   -0.8200 A=    0.0000 R=    0.0000 C=    0.0000
 XYZ=    3.6375    3.6406    9.4519 Q=    0.4100 A=    0.0000 R=    0.0000 C=    0.0000
 XYZ=    2.2376    3.2740    8.6952 Q=    0.4100 A=    0.0000 R=    0.0000 C=    0.0000
 XYZ=   -4.7136   -0.1668   -8.8001 Q=   -0.8200 A=    0.0000 R=    0.0000 C=    0.0000
 XYZ=   -5.3685   -0.9104   -8.6657 Q=    0.4100 A=    0.0000 R=    0.0000 C=    0.0000
 XYZ=   -4.4454   -0.1288   -9.7627 Q=    0.4100 A=    0.0000 R=    0.0000 C=    0.0000
 XYZ=   -5.7624   -4.5743   -5.9083 Q=   -0.8200 A=    0.0000 R=    0.0000 C=    0.0000
 XYZ=   -5.4362   -3.9870   -6.6490 Q=    0.4100 A=    0.0000 R=    0.0000 C=    0.0000
 XYZ=   -6.5902   -5.0523   -6.2019 Q=    0.4100 A=    0.0000 R=    0.0000 C=    0.0000
 XYZ=   -7.8927   -5.3636    1.3299 Q=   -0.8200 A=    0.0000 R=    0.0000 C=    0.0000
 XYZ=   -8.6133   -5.6004    0.6782 Q=    0.4100 A=    0.0000 R=    0.0000 C=    0.0000
 XYZ=   -7.1716   -4.8553    0.8591 Q=    0.4100 A=    0.0000 R=    0.0000 C=    0.0000
 XYZ=    0.2579   10.0592    3.3718 Q=   -0.8200 A=    0.0000 R=    0.0000 C=    0.0000
 XYZ=   -0.6898   10.0874    3.0536 Q=    0.4100 A=    0.0000 R=    0.0000 C=    0.0000
 XYZ=    0.2834    9.7237    4.3135 Q=    0.4100 A=    0.0000 R=    0.0000 C=    0.0000
 XYZ=   -1.0183   -5.6408    8.3760 Q=   -0.8200 A=    0.0000 R=    0.0000 C=    0.0000
 XYZ=   -0.1705   -5.1444    8.5631 Q=    0.4100 A=    0.0000 R=    0.0000 C=    0.0000
 XYZ=   -1.7238   -4.9962    8.0814 Q=    0.4100 A=    0.0000 R=    0.0000 C=    0.0000
 XYZ=    3.3281   -6.6786   -7.0123 Q=   -0.8200 A=    0.0000 R=    0.0000 C=    0.0000
 XYZ=    3.8148   -5.9304   -7.4632 Q=    0.4100 A=    0.0000 R=    0.0000 C=    0.0000
 XYZ=    3.8347   -7.5311   -7.1411 Q=    0.4100 A=    0.0000 R=    0.0000 C=    0.0000
 XYZ=   -3.0047    8.9062    5.0789 Q=   -0.8200 A=    0.0000 R=    0.0000 C=    0.0000
 XYZ=   -3.6647    8.1557    5.1152 Q=    0.4100 A=    0.0000 R=    0.0000 C=    0.0000
 XYZ=   -3.4924    9.7749    4.9924 Q=    0.4100 A=    0.0000 R=    0.0000 C=    0.0000
 XYZ=    1.2965   11.4708   -0.6385 Q=   -0.8200 A=    0.0000 R=    0.0000 C=    0.0000
 XYZ=    2.1259   12.0278   -0.5957 Q=    0.4100 A=    0.0000 R=    0.0000 C=    0.0000
 XYZ=    1.4367   10.7125   -1.2751 Q=    0.4100 A=    0.0000 R=    0.0000 C=    0.0000
 XYZ=    9.2205   -3.7889    1.3815 Q=   -0.8200 A=    0.0000 R=    0.0000 C=    0.0000
 XYZ=    8.4190   -3.5183    1.9149 Q=    0.4100 A=    0.0000 R=    0.0000 C=    0.0000
 XYZ=    9.0389   -3.6416    0.4092 Q=    0.4100 A=    0.0000 R=    0.0000 C=    0.0000
 XYZ=   -5.1757   -3.2616   -7.7272 Q=   -0.8200 A=    0.0000 R=    0.0000 C=    0.0000
 XYZ=   -4.7951   -3.7490   -8.5131 Q=    0.4100 A=    0.0000 R=    0.0000 C=    0.0000
 XYZ=   -5.8746   -2.6186   -8.0403 Q=    0.4100 A=    0.0000 R=    0.0000 C=    0.0000
 XYZ=   -7.9755   -1.7607    3.9932 Q=   -0.8200 A=    0.0000 R=    0.0000 C=    0.0000
 XYZ=   -7.9882   -1.2472    3.1352 Q=    0.4100 A=    0.0000 R=    0.0000 C=    0.0000
 XYZ=   -8.8516   -2.2270    4.1155 Q=    0.4100 A=    0.0000 R=    0.0000 C=    0.0000
 XYZ=   -2.2487   -9.6799    2.7668 Q=   -0.8200 A=    0.0000 R=    0.0000 C=    0.0000
 XYZ=   -1.4645   -9.1206    3.0355 Q=    0.4100 A=    0.0000 R=    0.0000 C=    0.0000
 XYZ=   -2.6297   -9.3303    1.9108 Q=    0.4100 A=    0.0000 R=    0.0000 C=    0.0000
 XYZ=   -6.8092   -5.1553    5.1889 Q=   -0.8200 A=    0.0000 R=    0.0000 C=    0.0000
 XYZ=   -7.5389   -5.3594    4.5363 Q=    0.4100 A=    0.0000 R=    0.0000 C=    0.0000
 XYZ=   -6.4330   -4.2492    4.9956 Q=    0.4100 A=    0.0000 R=    0.0000 C=    0.0000
 XYZ=   -2.8391   -4.2538    8.1823 Q=   -0.8200 A=    0.0000 R=    0.0000 C=    0.0000
 XYZ=   -3.4458   -5.0466    8.2409 Q=    0.4100 A=    0.0000 R=    0.0000 C=    0.0000
 XYZ=   -2.5853   -3.9596    9.1038 Q=    0.4100 A=    0.0000 R=    0.0000 C=    0.0000
 XYZ=    8.8990   -3.6805   -0.9176 Q=   -0.8200 A=    0.0000 R=    0.0000 C=    0.0000
 XYZ=    9.8828   -3.7896   -1.0601 Q=    0.4100 A=    0.0000 R=    0.0000 C=    0.0000
 XYZ=    8.4035   -4.1018   -1.6773 Q=    0.4100 A=    0.0000 R=    0.0000 C=    0.0000
 XYZ=    0.9874    0.1998  -10.6877 Q=   -0.8200 A=    0.0000 R=    0.0000 C=    0.0000
 XYZ=    1.6427   -0.5516  -10.7659 Q=    0.4100 A=    0.0000 R=    0.0000 C=    0.0000
 XYZ=    0.1015   -0.1598  -10.3943 Q=    0.4100 A=    0.0000 R=    0.0000 C=    0.0000
 XYZ=    7.5048    6.8786    2.4751 Q=   -0.8200 A=    0.0000 R=    0.0000 C=    0.0000
 XYZ=    6.6726    6.3724    2.7013 Q=    0.4100 A=    0.0000 R=    0.0000 C=    0.0000
 XYZ=    8.2708    6.2410    2.3931 Q=    0.4100 A=    0.0000 R=    0.0000 C=    0.0000
 XYZ=   -3.7450   -7.1492    6.1232 Q=   -0.8200 A=    0.0000 R=    0.0000 C=    0.0000
 XYZ=   -4.3159   -6.7504    5.4055 Q=    0.4100 A=    0.0000 R=    0.0000 C=    0.0000
 XYZ=   -4.0118   -6.7713    7.0098 Q=    0.4100 A=    0.0000 R=    0.0000 C=    0.0000
 XYZ=    7.1703   -6.8222   -1.5781 Q=   -0.8200 A=    0.0000 R=    0.0000 C=    0.0000
 XYZ=    7.7726   -7.1877   -0.8685 Q=    0.4100 A=    0.0000 R=    0.0000 C=    0.0000
 XYZ=    7.5925   -6.0148   -1.9903 Q=    0.4100 A=    0.0000 R=    0.0000 C=    0.0000
 XYZ=    4.7641   -5.2331   -8.2677 Q=   -0.8200 A=    0.0000 R=    0.0000 C=    0.0000
 XYZ=    5.4497   -5.2942   -8.9932 Q=    0.4100 A=    0.0000 R=    0.0000 C=    0.0000
 XYZ=    5.0735   -4.5865   -7.5704 Q=    0.4100 A=    0.0000 R=    0.0000 C=    0.0000
 XYZ=   -6.3095    8.9731    2.4722 Q=   -0.8200 A=    0.0000 R=    0.0000 C=    0.0000
 XYZ=   -6.6282    8.0284    2.5495 Q=    0.4100 A=    0.0000 R=    0.0000 C=    0.0000
 XYZ=   -6.2956    9.3954    3.3786 Q=    0.4100 A=    0.0000 R=    0.0000 C=    0.0000
 XYZ=   -1.8365  -10.0682   -0.4561 Q=   -0.8200 A=    0.0000 R=    0.0000 C=    0.0000
 XYZ=   -1.1799  -10.6556    0.0169 Q=    0.4100 A=    0.0000 R=    0.0000 C=    0.0000
 XYZ=   -2.3140  -10.5987   -1.1566 Q=    0.4100 A=    0.0000 R=    0.0000 C=    0.0000
 XYZ=   -7.6688    5.7800    4.8129 Q=   -0.8200 A=    0.0000 R=    0.0000 C=    0.0000
 XYZ=   -7.1112    4.9716    5.0014 Q=    0.4100 A=    0.0000 R=    0.0000 C=    0.0000
 XYZ=   -7.2068    6.5934    5.1665 Q=    0.4100 A=    0.0000 R=    0.0000 C=    0.0000
 XYZ=    0.7346   10.2240   -4.2656 Q=   -0.8200 A=    0.0000 R=    0.0000 C=    0.0000
 XYZ=   -0.1312   10.6455   -4.5352 Q=    0.4100 A=    0.0000 R=    0.0000 C=    0.0000
 XYZ=    1.3451   10.1815   -5.0565 Q=    0.4100 A=    0.0000 R=    0.0000 C=    0.0000
 XYZ=    6.0249    5.0744   -5.8261 Q=   -0.8200 A=    0.0000 R=    0.0000 C=    0.0000
 XYZ=    6.6474    5.7553   -5.4403 Q=    0.4100 A=    0.0000 R=    0.0000 C=    0.0000
 XYZ=    6.5411    4.4378   -6.3993 Q=    0.4100 A=    0.0000 R=    0.0000 C=    0.0000
 XYZ=    8.3909   -6.1594    2.0171 Q=   -0.8200 A=    0.0000 R=    0.0000 C=    0.0000
 XYZ=    8.7435   -5.2313    1.8966 Q=    0.4100 A=    0.0000 R=    0.0000 C=    0.0000
 XYZ=    7.3957   -6.1283    2.1101 Q=    0.4100 A=    0.0000 R=    0.0000 C=    0.0000
 XYZ=   -1.1365    8.6257    6.5186 Q=   -0.8200 A=    0.0000 R=    0.0000 C=    0.0000
 XYZ=   -1.8587    8.6428    5.8271 Q=    0.4100 A=    0.0000 R=    0.0000 C=    0.0000
 XYZ=   -1.5124    8.2968    7.3850 Q=    0.4100 A=    0.0000 R=    0.0000 C=    0.0000
 XYZ=   -1.6008   -9.3288   -6.2985 Q=   -0.8200 A=    0.0000 R=    0.0000 C=    0.0000
 XYZ=   -1.7204   -8.3414   -6.4029 Q=    0.4100 A=    0.0000 R=    0.0000 C=    0.0000
 XYZ=   -2.0265   -9.7996   -7.0713 Q=    0.4100 A=    0.0000 R=    0.0000 C=    0.0000
 XYZ=   -7.2431    1.4728    7.3030 Q=   -0.8200 A=    0.0000 R=    0.0000 C=    0.0000
 XYZ=   -6.9224    0.7224    6.7251 Q=    0.4100 A=    0.0000 R=    0.0000 C=    0.0000
 XYZ=   -6.8378    2.3316    6.9896 Q=    0.4100 A=    0.0000 R=    0.0000 C=    0.0000
 XYZ=   -0.1823   -2.7058    9.8153 Q=   -0.8200 A=    0.0000 R=    0.0000 C=    0.0000
 XYZ=    0.4050   -3.4220    9.4383 Q=    0.4100 A=    0.0000 R=    0.0000 C=    0.0000
 XYZ=   -1.0143   -3.1181   10.1864 Q=    0.4100 A=    0.0000 R=    0.0000 C=    0.0000
 XYZ=   -9.6748   -0.0653    0.6817 Q=   -0.8200 A=    0.0000 R=    0.0000 C=    0.0000
 XYZ=   -9.4549    0.2866   -0.2281 Q=    0.4100 A=    0.0000 R=    0.0000 C=    0.0000
 XYZ=   -8.8715   -0.5204    1.0661 Q=    0.4100 A=    0.0000 R=    0.0000 C=    0.0000
 XYZ=   -2.2358    5.8965    9.6597 Q=   -0.8200 A=    0.0000 R=    0.0000 C=    0.0000
 XYZ=   -2.4859    6.8194    9.3667 Q=    0.4100 A=    0.0000 R=    0.0000 C=    0.0000
 XYZ=   -1.9223    5.3695    8.8698 Q=    0.4100 A=    0.0000 R=    0.0000 C=    0.0000
 XYZ=   -5.1475    5.6863    8.0123 Q=   -0.8200 A=    0.0000 R=    0.0000 C=    0.0000
 XYZ=   -5.6641    6.5289    8.1642 Q=    0.4100 A=    0.0000 R=    0.0000 C=    0.0000
 XYZ=   -4.2590    5.9079    7.6104 Q=    0.4100 A=    0.0000 R=    0.0000 C=    0.0000
 XYZ=    6.9909    0.1473   -7.8673 Q=   -0.8200 A=    0.0000 R=    0.0000 C=    0.0000
 XYZ=    7.3134    0.3500   -6.9427 Q=    0.4100 A=    0.0000 R=    0.0000 C=    0.0000
 XYZ=    6.2143   -0.4808   -7.8192 Q=    0.4100 A=    0.0000 R=    0.0000 C=    0.0000
 XYZ=   -4.9570   -9.3095   -2.5617 Q=   -0.8200 A=    0.0000 R=    0.0000 C=    0.0000
 XYZ=   -5.7523   -9.8831   -2.7580 Q=    0.4100 A=    0.0000 R=    0.0000 C=    0.0000
 XYZ=   -4.8652   -8.6124   -3.2728 Q=    0.4100 A=    0.0000 R=    0.0000 C=    0.0000
 XYZ=   -6.1860    3.7308    7.3060 Q=   -0.8200 A=    0.0000 R=    0.0000 C=    0.0000
 XYZ=   -6.4763    3.2228    8.1170 Q=    0.4100 A=    0.0000 R=    0.0000 C=    0.0000
 XYZ=   -5.8892    4.6470    7.5752 Q=    0.4100 A=    0.0000 R=    0.0000 C=    0.0000
 XYZ=    8.9525    5.0008    2.2300 Q=   -0.8200 A=    0.0000 R=    0.0000 C=    0.0000
 XYZ=    9.2348    4.3554    2.9399 Q=    0.4100 A=    0.0000 R=    0.0000 C=    0.0000
 XYZ=    8.1667    4.6294    1.7354 Q=    0.4100 A=    0.0000 R=    0.0000 C=    0.0000
 XYZ=    1.5727   -7.4338   -8.4725 Q=   -0.8200 A=    0.0000 R=    0.0000 C=    0.0000
 XYZ=    0.7317   -6.9233   -8.2931 Q=    0.4100 A=    0.0000 R=    0.0000 C=    0.0000
 XYZ=    2.2880   -7.1291   -7.8435 Q=    0.4100 A=    0.0000 R=    0.0000 C=    0.0000
 XYZ=   -3.3054    6.1698   -8.2903 Q=   -0.8200 A=    0.0000 R=    0.0000 C=    0.0000
 XYZ=   -3.5970    6.8827   -7.6526 Q=    0.4100 A=    0.0000 R=    0.0000 C=    0.0000
 XYZ=   -4.1073    5.7768   -8.7403 Q=    0.4100 A=    0.0000 R=    0.0000 C=    0.0000
 XYZ=   -5.7465   10.0637    0.5404 Q=   -0.8200 A=    0.0000 R=    0.0000 C=    0.0000
 XYZ=   -6.4846   10.5908    0.1192 Q=    0.4100 A=    0.0000 R=    0.0000 C=    0.0000
 XYZ=   -6.1257    9.4630    1.2443 Q=    0.4100 A=    0.0000 R=    0.0000 C=    0.0000
 XYZ=  -10.0091    1.6514    2.1563 Q=   -0.8200 A=    0.0000 R=    0.0000 C=    0.0000
 XYZ=   -9.1118    1.8701    2.5397 Q=    0.4100 A=    0.0000 R=    0.0000 C=    0.0000
 XYZ=   -9.9470    0.8076    1.6232 Q=    0.4100 A=    0.0000 R=    0.0000 C=    0.0000
 XYZ=    5.8271    2.5921   -8.1501 Q=   -0.8200 A=    0.0000 R=    0.0000 C=    0.0000
 XYZ=    6.4520    3.1635   -7.6181 Q=    0.4100 A=    0.0000 R=    0.0000 C=    0.0000
 XYZ=    6.2546    1.7054   -8.3262 Q=    0.4100 A=    0.0000 R=    0.0000 C=    0.0000
 XYZ=    2.7085    1.8286  -10.5944 Q=   -0.8200 A=    0.0000 R=    0.0000 C=    0.0000
 XYZ=    2.4523    2.6456  -11.1111 Q=    0.4100 A=    0.0000 R=    0.0000 C=    0.0000
 XYZ=    1.9473    1.1799  -10.5976 Q=    0.4100 A=    0.0000 R=    0.0000 C=    0.0000
 XYZ=   -2.5380    2.9971  -11.3470 Q=   -0.8200 A=    0.0000 R=    0.0000 C=    0.0000
 XYZ=   -2.4283    3.0091  -10.3531 Q=    0.4100 A=    0.0000 R=    0.0000 C=    0.0000
 XYZ=   -2.5271    2.0515  -11.6720 Q=    0.4100 A=    0.0000 R=    0.0000 C=    0.0000
 XYZ=   -9.7715    3.2435   -2.1045 Q=   -0.8200 A=    0.0000 R=    0.0000 C=    0.0000
 XYZ=  -10.7668    3.1540   -2.0658 Q=    0.4100 A=    0.0000 R=    0.0000 C=    0.0000
 XYZ=   -9.4799    3.9855   -1.5009 Q=    0.4100 A=    0.0000 R=    0.0000 C=    0.0000
 XYZ=    6.2517    2.5208    7.4839 Q=   -0.8200 A=    0.0000 R=    0.0000 C=    0.0000
 XYZ=    6.9894    2.9956    7.0039 Q=    0.4100 A=    0.0000 R=    0.0000 C=    0.0000
 XYZ=    5.9937    3.0420    8.2975 Q=    0.4100 A=    0.0000 R=    0.0000 C=    0.0000
 XYZ=    4.9480   -1.4115  -10.1385 Q=   -0.8200 A=    0.0000 R=    0.0000 C=    0.0000
 XYZ=    4.8722   -1.3297   -9.1448 Q=    0.4100 A=    0.0000 R=    0.0000 C=    0.0000
 XYZ=    5.7532   -1.9586  -10.3674 Q=    0.4100 A=    0.0000 R=    0.0000 C=    0.0000
 XYZ=   -6.7341   -7.3482    1.1868 Q=   -0.8200 A=    0.0000 R=    0.0000 C=    0.0000
 XYZ=   -7.2318   -6.4810    1.2028 Q=    0.4100 A=    0.0000 R=    0.0000 C=    0.0000
 XYZ=   -6.6312   -7.6907    2.1207 Q=    0.4100 A=    0.0000 R=    0.0000 C=    0.0000
 XYZ=   -4.1517   11.3091   -0.4901 Q=   -0.8200 A=    0.0000 R=    0.0000 C=    0.0000
 XYZ=   -4.6531   12.1243   -0.7801 Q=    0.4100 A=    0.0000 R=    0.0000 C=    0.0000
 XYZ=   -4.7760   10.6820   -0.0243 Q=    0.4100 A=    0.0000 R=    0.0000 C=    0.0000
 XYZ=    7.9150    5.2635   -2.4269 Q=   -0.8200 A=    0.0000 R=    0.0000 C=    0.0000
 XYZ=    8.5146    4.5996   -1.9799 Q=    0.4100 A=    0.0000 R=    0.0000 C=    0.0000
 XYZ=    8.0516    6.1651   -2.0164 Q=    0.4100 A=    0.0000 R=    0.0000 C=    0.0000
 XYZ=    1.5128   11.7282    1.7243 Q=   -0.8200 A=    0.0000 R=    0.0000 C=    0.0000
 XYZ=    1.1223   11.1022    2.3993 Q=    0.4100 A=    0.0000 R=    0.0000 C=    0.0000
 XYZ=    1.1264   11.5303    0.8234 Q=    0.4100 A=    0.0000 R=    0.0000 C=    0.0000
 XYZ=   -1.2683   10.9810   -5.1025 Q=   -0.8200 A=    0.0000 R=    0.0000 C=    0.0000
 XYZ=   -1.4846   11.9571   -5.1242 Q=    0.4100 A=    0.0000 R=    0.0000 C=    0.0000
 XYZ=   -2.0500   10.4745   -4.7386 Q=    0.4100 A=    0.0000 R=    0.0000 C=    0.0000
 XYZ=    8.0528    0.7613   -5.6716 Q=   -0.8200 A=    0.0000 R=    0.0000 C=    0.0000
 XYZ=    8.4781    1.6636   -5.7434 Q=    0.4100 A=    0.0000 R=    0.0000 C=    0.0000
 XYZ=    8.7602    0.0555   -5.7090 Q=    0.4100 A=    0.0000 R=    0.0000 C=    0.0000
 XYZ=   -4.4468   -6.3717   -8.3763 Q=   -0.8200 A=    0.0000 R=    0.0000 C=    0.0000
 XYZ=   -3.6944   -6.9512   -8.6893 Q=    0.4100 A=    0.0000 R=    0.0000 C=    0.0000
 XYZ=   -4.4784   -6.3775   -7.3768 Q=    0.4100 A=    0.0000 R=    0.0000 C=    0.0000
 XYZ=    9.6536   -0.1660   -1.8298 Q=   -0.8200 A=    0.0000 R=    0.0000 C=    0.0000
 XYZ=    9.1975    0.7129   -1.6897 Q=    0.4100 A=    0.0000 R=    0.0000 C=    0.0000
 XYZ=   10.2523   -0.3585   -1.0522 Q=    0.4100 A=    0.0000 R=    0.0000 C=    0.0000
 XYZ=    6.3121    5.4177    6.5018 Q=   -0.8200 A=    0.0000 R=    0.0000 C=    0.0000
 XYZ=    6.8085    6.2645    6.6926 Q=    0.4100 A=    0.0000 R=    0.0000 C=    0.0000
 XYZ=    6.9460    4.6451    6.5347 Q=    0.4100 A=    0.0000 R=    0.0000 C=    0.0000
 XYZ=   10.3541    0.8486    1.8852 Q=   -0.8200 A=    0.0000 R=    0.0000 C=    0.0000
 XYZ=   10.1486    1.2353    2.7843 Q=    0.4100 A=    0.0000 R=    0.0000 C=    0.0000
 XYZ=    9.5095    0.7688    1.3557 Q=    0.4100 A=    0.0000 R=    0.0000 C=    0.0000
 XYZ=   -1.3225   -6.2751  -10.1201 Q=   -0.8200 A=    0.0000 R=    0.0000 C=    0.0000
 XYZ=   -1.8964   -5.5680  -10.5332 Q=    0.4100 A=    0.0000 R=    0.0000 C=    0.0000
 XYZ=   -0.9924   -5.9590   -9.2306 Q=    0.4100 A=    0.0000 R=    0.0000 C=    0.0000
 XYZ=    9.2315    3.6196    4.5495 Q=   -0.8200 A=    0.0000 R=    0.0000 C=    0.0000
 XYZ=    8.5258    3.0188    4.1738 Q=    0.4100 A=    0.0000 R=    0.0000 C=    0.0000
 XYZ=   10.1339    3.2316    4.3619 Q=    0.4100 A=    0.0000 R=    0.0000 C=    0.0000
 XYZ=   -6.3675   -8.1198    3.3448 Q=   -0.8200 A=    0.0000 R=    0.0000 C=    0.0000
 XYZ=   -6.0319   -7.3156    3.8355 Q=    0.4100 A=    0.0000 R=    0.0000 C=    0.0000
 XYZ=   -5.6560   -8.8225    3.3307 Q=    0.4100 A=    0.0000 R=    0.0000 C=    0.0000
 XYZ=    1.2827   -3.8195  -10.3968 Q=   -0.8200 A=    0.0000 R=    0.0000 C=    0.0000
 XYZ=    1.7563   -2.9416  -10.3251 Q=    0.4100 A=    0.0000 R=    0.0000 C=    0.0000
 XYZ=    1.8680   -4.5445  -10.0338 Q=    0.4100 A=    0.0000 R=    0.0000 C=    0.0000
 XYZ=    2.6741   -5.2921   -9.3973 Q=   -0.8200 A=    0.0000 R=    0.0000 C=    0.0000
 XYZ=    2.2200   -6.1743   -9.2721 Q=    0.4100 A=    0.0000 R=    0.0000 C=    0.0000
 XYZ=    3.5836   -5.3236   -8.9826 Q=    0.4100 A=    0.0000 R=    0.0000 C=    0.0000
 XYZ=   -2.9279    7.9716    8.5899 Q=   -0.8200 A=    0.0000 R=    0.0000 C=    0.0000
 XYZ=   -3.0562    7.3251    7.8378 Q=    0.4100 A=    0.0000 R=    0.0000 C=    0.0000
 XYZ=   -3.8064    8.1422    9.0361 Q=    0.4100 A=    0.0000 R=    0.0000 C=    0.0000
 XYZ=    1.5420    5.6757    9.4413 Q=   -0.8200 A=    0.0000 R=    0.0000 C=    0.0000
 XYZ=    0.6992    5.7436    9.9755 Q=    0.4100 A=    0.0000 R=    0.0000 C=    0.0000
 XYZ=    1.9730    4.7893    9.6101 Q=    0.4100 A=    0.0000 R=    0.0000 C=    0.0000
 XYZ=   -9.2339    3.4280   -4.2761 Q=   -0.8200 A=    0.0000 R=    0.0000 C=    0.0000
 XYZ=   -9.5099    3.3584   -3.3174 Q=    0.4100 A=    0.0000 R=    0.0000 C=    0.0000
 XYZ=   -9.9396    3.0215   -4.8564 Q=    0.4100 A=    0.0000 R=    0.0000 C=    0.0000
 XYZ=   -7.8088    4.3509   -7.9077 Q=   -0.8200 A=    0.0000 R=    0.0000 C=    0.0000
 XYZ=   -7.8309    4.9850   -8.6807 Q=    0.4100 A=    0.0000 R=    0.0000 C=    0.0000
 XYZ=   -6.8617    4.0955   -7.7130 Q=    0.4100 A=    0.0000 R=    0.0000 C=    0.0000
 XYZ=    1.5045    3.9314  -11.3899 Q=   -0.8200 A=    0.0000 R=    0.0000 C=    0.0000
 XYZ=    1.2235    4.2159  -10.4733 Q=    0.4100 A=    0.0000 R=    0.0000 C=    0.0000
 XYZ=    1.8465    4.7240  -11.8947 Q=    0.4100 A=    0.0000 R=    0.0000 C=    0.0000
 XYZ=   -2.9991   11.7404    1.4615 Q=   -0.8200 A=    0.0000 R=    0.0000 C=    0.0000
 XYZ=   -3.7796   12.0034    2.0287 Q=    0.4100 A=    0.0000 R=    0.0000 C=    0.0000
 XYZ=   -3.3055   11.5917    0.5213 Q=    0.4100 A=    0.0000 R=    0.0000 C=    0.0000
 XYZ=   -0.8158   -2.8844  -10.9290 Q=   -0.8200 A=    0.0000 R=    0.0000 C=    0.0000
 XYZ=    0.0226   -3.2929  -10.5681 Q=    0.4100 A=    0.0000 R=    0.0000 C=    0.0000
 XYZ=   -0.7839   -2.8862  -11.9285 Q=    0.4100 A=    0.0000 R=    0.0000 C=    0.0000
 XYZ=    2.4563   -1.8174  -10.8517 Q=   -0.8200 A=    0.0000 R=    0.0000 C=    0.0000
 XYZ=    3.3369   -1.6600  -10.4047 Q=    0.4100 A=    0.0000 R=    0.0000 C=    0.0000
 XYZ=    2.5586   -1.7016  -11.8397 Q=    0.4100 A=    0.0000 R=    0.0000 C=    0.0000
 XYZ=    9.5660    3.6802   -1.4758 Q=   -0.8200 A=    0.0000 R=    0.0000 C=    0.0000
 XYZ=    9.0472    2.8254   -1.4649 Q=    0.4100 A=    0.0000 R=    0.0000 C=    0.0000
 XYZ=    9.9683    3.8374   -0.5739 Q=    0.4100 A=    0.0000 R=    0.0000 C=    0.0000
 XYZ=   -2.3572    0.6090  -11.7958 Q=   -0.8200 A=    0.0000 R=    0.0000 C=    0.0000
 XYZ=   -1.7673   -0.0620  -11.3466 Q=    0.4100 A=    0.0000 R=    0.0000 C=    0.0000
 XYZ=   -3.3017    0.4768  -11.4950 Q=    0.4100 A=    0.0000 R=    0.0000 C=    0.0000
 XYZ=   -9.7352    4.2486    2.0143 Q=   -0.8200 A=    0.0000 R=    0.0000 C=    0.0000
 XYZ=  -10.0523    4.6235    1.1431 Q=    0.4100 A=    0.0000 R=    0.0000 C=    0.0000
 XYZ=  -10.0829    3.3172    2.1226 Q=    0.4100 A=    0.0000 R=    0.0000 C=    0.0000
 XYZ=   -3.1345  -11.1673   -2.0324 Q=   -0.8200 A=    0.0000 R=    0.0000 C=    0.0000
 XYZ=   -2.7482  -11.4473   -2.9112 Q=    0.4100 A=    0.0000 R=    0.0000 C=    0.0000
 XYZ=   -3.7352  -10.3794   -2.1682 Q=    0.4100 A=    0.0000 R=    0.0000 C=    0.0000
 XYZ=   -6.6346   -1.8081   -8.8250 Q=   -0.8200 A=    0.0000 R=    0.0000 C=    0.0000
 XYZ=   -7.4349   -1.2337   -8.9972 Q=    0.4100 A=    0.0000 R=    0.0000 C=    0.0000
 XYZ=   -6.4742   -2.4013   -9.6139 Q=    0.4100 A=    0.0000 R=    0.0000 C=    0.0000
 XYZ=    7.6029    8.1320    0.4704 Q=   -0.8200 A=    0.0000 R=    0.0000 C=    0.0000
 XYZ=    8.1087    8.9690    0.6793 Q=    0.4100 A=    0.0000 R=    0.0000 C=    0.0000
 XYZ=    7.4611    7.6097    1.3114 Q=    0.4100 A=    0.0000 R=    0.0000 C=    0.0000
 XYZ=   -8.7230   -5.1765    3.6314 Q=   -0.8200 A=    0.0000 R=    0.0000 C=    0.0000
 XYZ=   -8.3143   -5.0774    2.7241 Q=    0.4100 A=    0.0000 R=    0.0000 C=    0.0000
 XYZ=   -9.2561   -6.0219    3.6662 Q=    0.4100 A=    0.0000 R=    0.0000 C=    0.0000
 XYZ=   -4.6169   -9.6169    3.5146 Q=   -0.8200 A=    0.0000 R=    0.0000 C=    0.0000
 XYZ=   -4.9457  -10.5605    3.5533 Q=    0.4100 A=    0.0000 R=    0.0000 C=    0.0000
 XYZ=   -3.6332   -9.6139    3.3351 Q=    0.4100 A=    0.0000 R=    0.0000 C=    0.0000
 XYZ=    7.3704    0.4702    7.9087 Q=   -0.8200 A=    0.0000 R=    0.0000 C=    0.0000
 XYZ=    6.8924    1.3379    7.7721 Q=    0.4100 A=    0.0000 R=    0.0000 C=    0.0000
 XYZ=    8.3327    0.6486    8.1140 Q=    0.4100 A=    0.0000 R=    0.0000 C=    0.0000
 XYZ=    5.6464   -0.9092    9.1325 Q=   -0.8200 A=    0.0000 R=    0.0000 C=    0.0000
 XYZ=    6.4876   -0.3921    8.9742 Q=    0.4100 A=    0.0000 R=    0.0000 C=    0.0000
 XYZ=    5.8553   -1.8869    9.1541 Q=    0.4100 A=    0.0000 R=    0.0000 C=    0.0000
 XYZ=   -4.4363   11.0580   -5.6271 Q=   -0.8200 A=    0.0000 R=    0.0000 C=    0.0000
 XYZ=   -4.0497   10.4776   -4.9104 Q=    0.4100 A=    0.0000 R=    0.0000 C=    0.0000
 XYZ=   -3.7184   11.3083   -6.2767 Q=    0.4100 A=    0.0000 R=    0.0000 C=    0.0000
 XYZ=   -4.2013    4.5091   10.2353 Q=   -0.8200 A=    0.0000 R=    0.0000 C=    0.0000
 XYZ=   -3.3110    4.9512   10.1249 Q=    0.4100 A=    0.0000 R=    0.0000 C=    0.0000
 XYZ=   -4.6157    4.3653    9.3367 Q=    0.4100 A=    0.0000 R=    0.0000 C=    0.0000
 XYZ=   -0.6392  -11.1172   -5.2767 Q=   -0.8200 A=    0.0000 R=    0.0000 C=    0.0000
 XYZ=    0.2953  -10.9203   -4.9801 Q=    0.4100 A=    0.0000 R=    0.0000 C=    0.0000
 XYZ=   -1.0896  -10.2660   -5.5463 Q=    0.4100 A=    0.0000 R=    0.0000 C=    0.0000
 XYZ=    0.9511   -1.2198   11.3941 Q=   -0.8200 A=    0.0000 R=    0.0000 C=    0.0000
 XYZ=    0.4809   -1.8060   10.7342 Q=    0.4100 A=    0.0000 R=    0.0000 C=    0.0000
 XYZ=    0.3050   -0.5547   11.7686 Q=    0.4100 A=    0.0000 R=    0.0000 C=    0.0000
 XYZ=   -9.0418    5.0172   -5.9618 Q=   -0.8200 A=    0.0000 R=    0.0000 C=    0.0000
 XYZ=   -8.4380    4.6239   -6.6552 Q=    0.4100 A=    0.0000 R=    0.0000 C=    0.0000
 XYZ=   -9.0162    4.4512   -5.1378 Q=    0.4100 A=    0.0000 R=    0.0000 C=    0.0000
 XYZ=    5.3676    6.0797    8.6649 Q=   -0.8200 A=    0.0000 R=    0.0000 C=    0.0000
 XYZ=    6.0983    6.5753    9.1346 Q=    0.4100 A=    0.0000 R=    0.0000 C=    0.0000
 XYZ=    5.6594    5.8591    7.7342 Q=    0.4100 A=    0.0000 R=    0.0000 C=    0.0000
 XYZ=    8.2907    7.6009   -1.7478 Q=   -0.8200 A=    0.0000 R=    0.0000 C=    0.0000
 XYZ=    7.4898    7.9277   -2.2495 Q=    0.4100 A=    0.0000 R=    0.0000 C=    0.0000
 XYZ=    8.1852    7.8139   -0.7764 Q=    0.4100 A=    0.0000 R=    0.0000 C=    0.0000
 XYZ=   -6.4613    7.5449    5.8228 Q=   -0.8200 A=    0.0000 R=    0.0000 C=    0.0000
 XYZ=   -6.3143    8.4358    5.3930 Q=    0.4100 A=    0.0000 R=    0.0000 C=    0.0000
 XYZ=   -6.5407    7.6615    6.8128 Q=    0.4100 A=    0.0000 R=    0.0000 C=    0.0000
 XYZ=    7.9056    3.8486    6.4459 Q=   -0.8200 A=    0.0000 R=    0.0000 C=    0.0000
 XYZ=    8.4036    3.5492    5.6321 Q=    0.4100 A=    0.0000 R=    0.0000 C=    0.0000
 XYZ=    8.5568    4.1359    7.1483 Q=    0.4100 A=    0.0000 R=    0.0000 C=    0.0000
 XYZ=  -11.2524    0.4133   -2.0757 Q=   -0.8200 A=    0.0000 R=    0.0000 C=    0.0000
 XYZ=  -11.8356    1.2256   -2.0633 Q=    0.4100 A=    0.0000 R=    0.0000 C=    0.0000
 XYZ=  -10.3034    0.6819   -1.9105 Q=    0.4100 A=    0.0000 R=    0.0000 C=    0.0000
 XYZ=   -6.6022   -5.7812    7.3878 Q=   -0.8200 A=    0.0000 R=    0.0000 C=    0.0000
 XYZ=   -6.6607   -5.5850    6.4090 Q=    0.4100 A=    0.0000 R=    0.0000 C=    0.0000
 XYZ=   -6.6250   -4.9236    7.9016 Q=    0.4100 A=    0.0000 R=    0.0000 C=    0.0000
 XYZ=    1.2207   10.7225    6.7795 Q=   -0.8200 A=    0.0000 R=    0.0000 C=    0.0000
 XYZ=    1.2042    9.8757    6.2478 Q=    0.4100 A=    0.0000 R=    0.0000 C=    0.0000
 XYZ=    2.1353   11.1247    6.7373 Q=    0.4100 A=    0.0000 R=    0.0000 C=    0.0000
 XYZ=    7.4714    3.9706   -7.0855 Q=   -0.8200 A=    0.0000 R=    0.0000 C=    0.0000
 XYZ=    7.9195    4.7483   -7.5263 Q=    0.4100 A=    0.0000 R=    0.0000 C=    0.0000
 XYZ=    8.1576    3.4083   -6.6240 Q=    0.4100 A=    0.0000 R=    0.0000 C=    0.0000
 XYZ=    5.0920    3.7326    9.2642 Q=   -0.8200 A=    0.0000 R=    0.0000 C=    0.0000
 XYZ=    5.6321    3.5872   10.0931 Q=    0.4100 A=    0.0000 R=    0.0000 C=    0.0000
 XYZ=    4.9576    4.7133    9.1218 Q=    0.4100 A=    0.0000 R=    0.0000 C=    0.0000
 XYZ=   -0.2235   -7.1004   10.0007 Q=   -0.8200 A=    0.0000 R=    0.0000 C=    0.0000
 XYZ=   -0.5906   -6.5222    9.2720 Q=    0.4100 A=    0.0000 R=    0.0000 C=    0.0000
 XYZ=    0.6837   -6.7708   10.2624 Q=    0.4100 A=    0.0000 R=    0.0000 C=    0.0000
 XYZ=    9.8284   -0.8789   -5.6767 Q=   -0.8200 A=    0.0000 R=    0.0000 C=    0.0000
 XYZ=   10.4747   -0.6519   -4.9481 Q=    0.4100 A=    0.0000 R=    0.0000 C=    0.0000
 XYZ=    9.2644   -1.6542   -5.3923 Q=    0.4100 A=    0.0000 R=    0.0000 C=    0.0000
 XYZ=    1.7992    2.5679   11.5472 Q=   -0.8200 A=    0.0000 R=    0.0000 C=    0.0000
 XYZ=    2.2589    2.8652   10.7104 Q=    0.4100 A=    0.0000 R=    0.0000 C=    0.0000
 XYZ=    2.1634    1.6806   11.8303 Q=    0.4100 A=    0.0000 R=    0.0000 C=    0.0000
 XYZ=   -0.0526    0.9126  -12.6853 Q=   -0.8200 A=    0.0000 R=    0.0000 C=    0.0000
 XYZ=    0.5504    0.7956  -11.8961 Q=    0.4100 A=    0.0000 R=    0.0000 C=    0.0000
 XYZ=   -1.0009    0.9742  -12.3739 Q=    0.4100 A=    0.0000 R=    0.0000 C=    0.0000
 XYZ=   -4.4525   -6.1820    8.1938 Q=   -0.8200 A=    0.0000 R=    0.0000 C=    0.0000
 XYZ=   -4.4750   -6.7471    9.0185 Q=    0.4100 A=    0.0000 R=    0.0000 C=    0.0000
 XYZ=   -5.3860   -5.9363    7.9325 Q=    0.4100 A=    0.0000 R=    0.0000 C=    0.0000
 XYZ=   -4.7397   -9.2756    6.0317 Q=   -0.8200 A=    0.0000 R=    0.0000 C=    0.0000
 XYZ=   -4.7804   -9.4585    5.0494 Q=    0.4100 A=    0.0000 R=    0.0000 C=    0.0000
 XYZ=   -4.2968   -8.3928    6.1883 Q=    0.4100 A=    0.0000 R=    0.0000 C=    0.0000
 XYZ=   -9.8914    5.3589    4.2625 Q=   -0.8200 A=    0.0000 R=    0.0000 C=    0.0000
 XYZ=   -9.9215    5.0497    3.3120 Q=    0.4100 A=    0.0000 R=    0.0000 C=    0.0000
 XYZ=   -8.9456    5.5597    4.5178 Q=    0.4100 A=    0.0000 R=    0.0000 C=    0.0000
 XYZ=   -0.2856    6.2814  -11.3198 Q=   -0.8200 A=    0.0000 R=    0.0000 C=    0.0000
 XYZ=   -0.7533    5.6465  -11.9348 Q=    0.4100 A=    0.0000 R=    0.0000 C=    0.0000
 XYZ=    0.1326    5.7706  -10.5686 Q=    0.4100 A=    0.0000 R=    0.0000 C=    0.0000
 XYZ=   -0.1688   13.4544   -1.1371 Q=   -0.8200 A=    0.0000 R=    0.0000 C=    0.0000
 XYZ=    0.3530   12.6020   -1.1726 Q=    0.4100 A=    0.0000 R=    0.0000 C=    0.0000
 XYZ=   -0.8634   13.3903   -0.4206 Q=    0.4100 A=    0.0000 R=    0.0000 C=    0.0000
 XYZ=   -6.6330    1.9656    9.4983 Q=   -0.8200 A=    0.0000 R=    0.0000 C=    0.0000
 XYZ=   -6.9345    1.5087    8.6615 Q=    0.4100 A=    0.0000 R=    0.0000 C=    0.0000
 XYZ=   -6.1035    1.3255   10.0553 Q=    0.4100 A=    0.0000 R=    0.0000 C=    0.0000
 XYZ=   -0.3448    3.2844   11.0765 Q=   -0.8200 A=    0.0000 R=    0.0000 C=    0.0000
 XYZ=    0.5740    3.0368   11.3840 Q=    0.4100 A=    0.0000 R=    0.0000 C=    0.0000
 XYZ=   -0.4475    4.2789   11.1002 Q=    0.4100 A=    0.0000 R=    0.0000 C=    0.0000
 XYZ=   -5.1287    5.4139   -9.4582 Q=   -0.8200 A=    0.0000 R=    0.0000 C=    0.0000
 XYZ=   -5.4530    6.2812   -9.8361 Q=    0.4100 A=    0.0000 R=    0.0000 C=    0.0000
 XYZ=   -4.9358    4.7766  -10.2043 Q=    0.4100 A=    0.0000 R=    0.0000 C=    0.0000
 XYZ=    8.7344   -7.5411    0.0920 Q=   -0.8200 A=    0.0000 R=    0.0000 C=    0.0000
 XYZ=    8.7638   -6.9219    0.8767 Q=    0.4100 A=    0.0000 R=    0.0000 C=    0.0000
 XYZ=    9.3096   -8.3385    0.2749 Q=    0.4100 A=    0.0000 R=    0.0000 C=    0.0000
 XYZ=   -0.4253  -11.7385    0.4511 Q=   -0.8200 A=    0.0000 R=    0.0000 C=    0.0000
 XYZ=   -0.6809  -12.5258   -0.1101 Q=    0.4100 A=    0.0000 R=    0.0000 C=    0.0000
 XYZ=   -0.5294  -11.9708    1.4182 Q=    0.4100 A=    0.0000 R=    0.0000 C=    0.0000
 XYZ=    9.3474    5.1145   -4.4817 Q=   -0.8200 A=    0.0000 R=    0.0000 C=    0.0000
 XYZ=    8.6853    5.1811   -3.7353 Q=    0.4100 A=    0.0000 R=    0.0000 C=    0.0000
 XYZ=   10.2455    5.4128   -4.1583 Q=    0.4100 A=    0.0000 R=    0.0000 C=    0.0000
 XYZ=    7.6003   -4.0167   -7.7375 Q=   -0.8200 A=    0.0000 R=    0.0000 C=    0.0000
 XYZ=    8.2828   -4.5684   -7.2580 Q=    0.4100 A=    0.0000 R=    0.0000 C=    0.0000
 XYZ=    7.2848   -4.5083   -8.5492 Q=    0.4100 A=    0.0000 R=    0.0000 C=    0.0000
 XYZ=    8.4664    7.4546    4.5897 Q=   -0.8200 A=    0.0000 R=    0.0000 C=    0.0000
 XYZ=    9.2917    6.8911    4.6248 Q=    0.4100 A=    0.0000 R=    0.0000 C=    0.0000
 XYZ=    7.8809    7.1420    3.8418 Q=    0.4100 A=    0.0000 R=    0.0000 C=    0.0000
 XYZ=   -6.1821    9.6301    4.7844 Q=   -0.8200 A=    0.0000 R=    0.0000 C=    0.0000
 XYZ=   -6.8299   10.2113    5.2768 Q=    0.4100 A=    0.0000 R=    0.0000 C=    0.0000
 XYZ=   -5.2825   10.0668    4.7756 Q=    0.4100 A=    0.0000 R=    0.0000 C=    0.0000
 XYZ=   -4.6074   -4.5713   -9.9370 Q=   -0.8200 A=    0.0000 R=    0.0000 C=    0.0000
 XYZ=   -3.7575   -4.4745  -10.4550 Q=    0.4100 A=    0.0000 R=    0.0000 C=    0.0000
 XYZ=   -4.5325   -5.3521   -9.3167 Q=    0.4100 A=    0.0000 R=    0.0000 C=    0.0000
 XYZ=   -4.5601    0.1563  -11.2421 Q=   -0.8200 A=    0.0000 R=    0.0000 C=    0.0000
 XYZ=   -5.2788    0.8503  -11.1981 Q=    0.4100 A=    0.0000 R=    0.0000 C=    0.0000
 XYZ=   -4.8967   -0.6409  -11.7432 Q=    0.4100 A=    0.0000 R=    0.0000 C=    0.0000
 XYZ=    4.4477    0.0845   10.9525 Q=   -0.8200 A=    0.0000 R=    0.0000 C=    0.0000
 XYZ=    4.8476   -0.4095   10.1804 Q=    0.4100 A=    0.0000 R=    0.0000 C=    0.0000
 XYZ=    5.1396    0.6791   11.3621 Q=    0.4100 A=    0.0000 R=    0.0000 C=    0.0000
 XYZ=   -1.6413   13.4598    0.7954 Q=   -0.8200 A=    0.0000 R=    0.0000 C=    0.0000
 XYZ=   -2.0790   12.6270    1.1342 Q=    0.4100 A=    0.0000 R=    0.0000 C=    0.0000
 XYZ=   -2.3261   14.1829    0.7045 Q=    0.4100 A=    0.0000 R=    0.0000 C=    0.0000
 XYZ=   -7.9827    2.2553   -9.5138 Q=   -0.8200 A=    0.0000 R=    0.0000 C=    0.0000
 XYZ=   -8.6024    2.7481  -10.1246 Q=    0.4100 A=    0.0000 R=    0.0000 C=    0.0000
 XYZ=   -7.5917    2.8931   -8.8501 Q=    0.4100 A=    0.0000 R=    0.0000 C=    0.0000
 XYZ=   -2.5407   -4.4415  -11.2833 Q=   -0.8200 A=    0.0000 R=    0.0000 C=    0.0000
 XYZ=   -2.6496   -4.6209  -12.2611 Q=    0.4100 A=    0.0000 R=    0.0000 C=    0.0000
 XYZ=   -1.7772   -3.8110  -11.1432 Q=    0.4100 A=    0.0000 R=    0.0000 C=    0.0000
 XYZ=    3.6525    6.2475   10.2845 Q=   -0.8200 A=    0.0000 R=    0.0000 C=    0.0000
 XYZ=    2.7760    6.1618    9.8108 Q=    0.4100 A=    0.0000 R=    0.0000 C=    0.0000
 XYZ=    4.3975    6.1903    9.6199 Q=    0.4100 A=    0.0000 R=    0.0000 C=    0.0000
 XYZ=   -2.1822   -3.8006   10.6165 Q=   -0.8200 A=    0.0000 R=    0.0000 C=    0.0000
 XYZ=   -2.0813   -4.5954   11.2150 Q=    0.4100 A=    0.0000 R=    0.0000 C=    0.0000
 XYZ=   -2.4222   -2.9992   11.1644 Q=    0.4100 A=    0.0000 R=    0.0000 C=    0.0000
 XYZ=   -2.6610   -7.7012   -8.9431 Q=   -0.8200 A=    0.0000 R=    0.0000 C=    0.0000
 XYZ=   -2.0117   -7.2494   -9.5549 Q=    0.4100 A=    0.0000 R=    0.0000 C=    0.0000
 XYZ=   -2.4133   -8.6654   -8.8476 Q=    0.4100 A=    0.0000 R=    0.0000 C=    0.0000
 XYZ=   11.0960   -0.2347   -3.6289 Q=   -0.8200 A=    0.0000 R=    0.0000 C=    0.0000
 XYZ=   10.3922   -0.4269   -2.9449 Q=    0.4100 A=    0.0000 R=    0.0000 C=    0.0000
 XYZ=   11.9510    0.0051   -3.1691 Q=    0.4100 A=    0.0000 R=    0.0000 C=    0.0000
 XYZ=    3.9951    0.1592  -11.9601 Q=   -0.8200 A=    0.0000 R=    0.0000 C=    0.0000
 XYZ=    3.6693    0.9765  -11.4849 Q=    0.4100 A=    0.0000 R=    0.0000 C=    0.0000
 XYZ=    4.5030   -0.4179  -11.3205 Q=    0.4100 A=    0.0000 R=    0.0000 C=    0.0000
 XYZ=   -4.6202    3.8754  -11.2021 Q=   -0.8200 A=    0.0000 R=    0.0000 C=    0.0000
 XYZ=   -5.1981    3.0619  -11.1370 Q=    0.4100 A=    0.0000 R=    0.0000 C=    0.0000
 XYZ=   -3.6630    3.5985  -11.2863 Q=    0.4100 A=    0.0000 R=    0.0000 C=    0.0000
 XYZ=   -0.3665    5.6966   10.9531 Q=   -0.8200 A=    0.0000 R=    0.0000 C=    0.0000
 XYZ=   -0.3232    6.2251   11.8009 Q=    0.4100 A=    0.0000 R=    0.0000 C=    0.0000
 XYZ=   -1.2187    5.9054   10.4733 Q=    0.4100 A=    0.0000 R=    0.0000 C=    0.0000
 XYZ=    9.6990   -4.8475   -4.1973 Q=   -0.8200 A=    0.0000 R=    0.0000 C=    0.0000
 XYZ=    9.6408   -4.7966   -5.1944 Q=    0.4100 A=    0.0000 R=    0.0000 C=    0.0000
 XYZ=    9.7846   -5.8036   -3.9169 Q=    0.4100 A=    0.0000 R=    0.0000 C=    0.0000
 XYZ=   -7.7212   -5.5346   -6.6326 Q=   -0.8200 A=    0.0000 R=    0.0000 C=    0.0000
 XYZ=   -8.3908   -4.8192   -6.8323 Q=    0.4100 A=    0.0000 R=    0.0000 C=    0.0000
 XYZ=   -8.0052   -6.0386   -5.8169 Q=    0.4100 A=    0.0000 R=    0.0000 C=    0.0000
 XYZ=   -9.4684    2.0083    7.6660 Q=   -0.8200 A=    0.0000 R=    0.0000 C=    0.0000
 XYZ=   -9.5956    2.7772    8.2927 Q=    0.4100 A=    0.0000 R=    0.0000 C=    0.0000
 XYZ=   -8.4935    1.8900    7.4771 Q=    0.4100 A=    0.0000 R=    0.0000 C=    0.0000
 XYZ=   -1.8522    1.8522   12.0841 Q=   -0.8200 A=    0.0000 R=    0.0000 C=    0.0000
 XYZ=   -2.7734    2.1564   11.8413 Q=    0.4100 A=    0.0000 R=    0.0000 C=    0.0000
 XYZ=   -1.1838    2.3175   11.5037 Q=    0.4100 A=    0.0000 R=    0.0000 C=    0.0000
 XYZ=   -8.4425   -8.7317    0.0498 Q=   -0.8200 A=    0.0000 R=    0.0000 C=    0.0000
 XYZ=   -8.9940   -7.9575   -0.2608 Q=    0.4100 A=    0.0000 R=    0.0000 C=    0.0000
 XYZ=   -7.6816   -8.3972    0.6059 Q=    0.4100 A=    0.0000 R=    0.0000 C=    0.0000
 XYZ=    9.2650    2.9520   -5.6236 Q=   -0.8200 A=    0.0000 R=    0.0000 C=    0.0000
 XYZ=    9.0815    3.8407   -5.2034 Q=    0.4100 A=    0.0000 R=    0.0000 C=    0.0000
 XYZ=   10.0603    2.5337   -5.1849 Q=    0.4100 A=    0.0000 R=    0.0000 C=    0.0000
 XYZ=   -4.2290   10.8663    4.9297 Q=   -0.8200 A=    0.0000 R=    0.0000 C=    0.0000
 XYZ=   -4.4145   11.4835    5.6944 Q=    0.4100 A=    0.0000 R=    0.0000 C=    0.0000
 XYZ=   -4.2442   11.3826    4.0734 Q=    0.4100 A=    0.0000 R=    0.0000 C=    0.0000
[...]
    42  O    0.000000  -0.000003   0.000000   0.000000   0.000000   0.001374
    43  H    0.000000   0.000000   0.000000   0.000000   0.000000  -0.000030
    44  H    0.000000  -0.000001   0.000000   0.000000   0.000000  -0.000055
    45  O    0.000000   0.000000   0.000000   0.000000   0.000000  -0.000097
    46  H    0.000000   0.000000   0.000000   0.000000   0.000000  -0.000001
    47  H    0.000000   0.000000   0.000000   0.000000   0.000000  -0.000002
    48  O    0.000000   0.000000  -0.001047  -0.000006  -0.000037   0.000000
    49  H    0.000000   0.000000   0.001187  -0.000014  -0.000036   0.000000
    50  H    0.000000   0.000000  -0.000160   0.000002   0.000001   0.000000
              31         32         33         34         35         36
     1  C    0.000003  -0.000400  -0.000267  -0.000018   0.000007  -0.000127
     2  H    0.000000   0.000000   0.000000  -0.000004   0.000000   0.000000
     3  H    0.000000   0.000000   0.000000   0.000000   0.000000   0.000000
     4  C    0.000558  -0.002305   0.001200   0.000035  -0.000026  -0.017548
     5  H    0.000000   0.000000   0.000000   0.000000   0.000000  -0.000028
     6  C   -0.000444   0.001880  -0.001422   0.000486   0.000111   0.014696
     7  H   -0.000115  -0.003101   0.000001   0.000000   0.000000   0.000817
     8  O    0.000059   0.001544  -0.000568  -0.000416   0.000035  -0.000206
     9  O   -0.000004   0.000179  -0.041415   0.024025   0.002083   0.000014
    10  H    0.000000  -0.000004  -0.000398   0.001797   0.000138   0.000001
    11  H    0.000000  -0.000008   0.000542  -0.000996  -0.000374   0.000000
    12  O   -0.002195   0.061818  -0.000029  -0.000020   0.000000   0.002134
    13  H    0.000062  -0.003099   0.000007   0.000021   0.000000  -0.000629
    14  H    0.000090  -0.001794   0.000000   0.000001   0.000000   0.000219
    15  O    0.000000   0.000000   0.000000   0.000000   0.000000   0.000000
    16  H    0.000000   0.000000   0.000000   0.000000   0.000000   0.000000
    17  H    0.000000   0.000000   0.000000   0.000000   0.000000   0.000000
    18  O   -0.000010   0.000031  -0.006460   0.000283  -0.000270  -0.000001
    19  H    0.000000   0.000000   0.000077  -0.000064  -0.000003   0.000000
    20  H    0.000000  -0.000002   0.000267  -0.000413  -0.000087   0.000000
    21  O    0.000000   0.000000   0.000000   0.000000   0.000000   0.000002
    22  H    0.000000   0.000000   0.000000   0.000000   0.000000   0.000000
    23  H    0.000000   0.000000   0.000000   0.000000   0.000000   0.000000
    24  O    0.000000   0.000000   0.000002   0.000000   0.000000   0.000000
    25  H    0.000000   0.000000   0.000000   0.000000   0.000000   0.000000
    26  H    0.000000   0.000000   0.000000   0.000000   0.000000   0.000000
    27  O    0.000000  -0.000001   0.000000   0.000000   0.000000  -0.000014
    28  H    0.000000   0.000000   0.000000   0.000000   0.000000   0.000002
    29  H    0.000000   0.000000   0.000000   0.000000   0.000000   0.000000
    30  O    0.177176   0.161041  -0.000001   0.000001   0.000000  -0.134992
    31  H    0.127695  -0.000335   0.000000   0.000000   0.000000   0.001619
    32  H   -0.000335   0.185418   0.000000   0.000000   0.000000   0.008350
    33  O    0.000000   0.000000   8.911890   0.133756   0.210709   0.000000
    34  H    0.000000   0.000000   0.133756   0.201933  -0.004053   0.000000
    35  H    0.000000   0.000000   0.210709  -0.004053   0.209156   0.000000
    36  O    0.001619   0.008350   0.000000   0.000000   0.000000   8.885342
    37  H    0.000079   0.000584   0.000000   0.000000   0.000000   0.215629
    38  H    0.001023  -0.004349   0.000000   0.000000   0.000000   0.159435
    39  O    0.000000   0.000000   0.000000   0.000000   0.000000   0.000000
    40  H    0.000000   0.000000   0.000000   0.000000   0.000000   0.000000
    41  H    0.000000   0.000000   0.000000   0.000000   0.000000   0.000000
    42  O   -0.000102   0.000831   0.000128   0.000005  -0.000004   0.000071
    43  H    0.000001   0.000000  -0.000001   0.000000   0.000000   0.000000
    44  H    0.000002   0.000001   0.000104   0.000007   0.000000  -0.000001
    45  O   -0.000003   0.000010   0.002588  -0.001915   0.002794   0.000001
    46  H    0.000000   0.000000  -0.000504   0.000078  -0.000213   0.000000
    47  H    0.000000   0.000000  -0.001800   0.000049  -0.000135   0.000000
    48  O    0.000000   0.000000   0.000000   0.000000   0.000000   0.000000
    49  H    0.000000   0.000000   0.000000   0.000000   0.000000   0.000000
    50  H    0.000000   0.000000   0.000000   0.000000   0.000000   0.000000
              37         38         39         40         41         42
     1  C    0.000905  -0.000033  -0.003974   0.000143   0.000988   0.000228
     2  H    0.000000   0.000000  -0.000009   0.000000  -0.000001   0.000001
     3  H    0.000000   0.000000   0.000004   0.000000  -0.000005   0.000000
     4  C    0.002926   0.001607   0.002621  -0.000096  -0.000428   0.000502
     5  H   -0.000007   0.000000  -0.000001   0.000000   0.000000   0.000000
     6  C   -0.001712  -0.001402   0.000127  -0.000013  -0.000162  -0.005226
     7  H    0.000311   0.000127   0.000000   0.000000   0.000000  -0.000112
     8  O   -0.000027   0.000018   0.000006   0.000000  -0.000003   0.000643
     9  O    0.000000   0.000000  -0.000001   0.000000   0.000000  -0.002260
    10  H    0.000000   0.000000   0.000000   0.000000   0.000000  -0.000012
    11  H    0.000000   0.000000   0.000000   0.000000   0.000000   0.000256
    12  O    0.005571   0.003680  -0.000005   0.000000   0.000000  -0.035242
    13  H   -0.000070  -0.000013   0.000000   0.000000   0.000000   0.000013
    14  H    0.000049  -0.000012   0.000000   0.000000   0.000000   0.036023
    15  O    0.000000   0.000000  -0.044139  -0.000829   0.050603   0.000000
    16  H    0.000000   0.000000   0.002004  -0.000020  -0.002972   0.000000
    17  H    0.000000   0.000000   0.001181   0.000001   0.000353   0.000000
    18  O    0.000000   0.000000  -0.000001   0.000000   0.000000  -0.133317
    19  H    0.000000   0.000000   0.000000   0.000000   0.000000   0.000937
    20  H    0.000000   0.000000   0.000000   0.000000   0.000000   0.004753
    21  O   -0.000002   0.000000  -0.000256  -0.000010   0.000338   0.000000
    22  H    0.000000   0.000000  -0.000008   0.000000  -0.000001   0.000000
    23  H    0.000000   0.000000   0.000037   0.000000  -0.000006   0.000000
    24  O    0.000000   0.000000  -0.066132   0.001178   0.003267  -0.000014
    25  H    0.000000   0.000000   0.025810   0.000609  -0.000664   0.000000
    26  H    0.000000   0.000000   0.002749   0.000011  -0.000226  -0.000003
    27  O    0.000029   0.000000  -0.000132   0.000001   0.000031   0.000000
    28  H   -0.000003   0.000000   0.000000   0.000000   0.000000   0.000000
    29  H   -0.000001   0.000000   0.000016   0.000000  -0.000004   0.000000
    30  O    0.001898   0.052810   0.000000   0.000000   0.000000   0.001374
    31  H    0.000079   0.001023   0.000000   0.000000   0.000000  -0.000102
    32  H    0.000584  -0.004349   0.000000   0.000000   0.000000   0.000831
    33  O    0.000000   0.000000   0.000000   0.000000   0.000000   0.000128
    34  H    0.000000   0.000000   0.000000   0.000000   0.000000   0.000005
    35  H    0.000000   0.000000   0.000000   0.000000   0.000000  -0.000004
    36  O    0.215629   0.159435   0.000000   0.000000   0.000000   0.000071
    37  H    0.310861  -0.009009   0.000000   0.000000   0.000000   0.000012
    38  H   -0.009009   0.194256   0.000000   0.000000   0.000000  -0.000002
    39  O    0.000000   0.000000   8.985584   0.199201   0.146301   0.000000
    40  H    0.000000   0.000000   0.199201   0.148263  -0.002053   0.000000
    41  H    0.000000   0.000000   0.146301  -0.002053   0.211830   0.000000
    42  O    0.000012  -0.000002   0.000000   0.000000   0.000000   9.036157
    43  H    0.000000   0.000000   0.000000   0.000000   0.000000   0.210244
    44  H    0.000000   0.000000   0.000000   0.000000   0.000000   0.146067
    45  O    0.000000  -0.000001   0.000000   0.000000   0.000000  -0.000129
    46  H    0.000000   0.000000   0.000000   0.000000   0.000000   0.000000
    47  H    0.000000   0.000000   0.000000   0.000000   0.000000   0.000001
    48  O    0.000000   0.000000  -0.000124   0.000005   0.000060   0.000000
    49  H    0.000000   0.000000  -0.000009   0.000000  -0.000020   0.000000
    50  H    0.000000   0.000000   0.000004   0.000000   0.000000   0.000000
              43         44         45         46         47         48
     1  C   -0.000005   0.000019  -0.000101   0.000001   0.000000   0.000102
     2  H    0.000000   0.000000   0.000000   0.000000   0.000000   0.000000
     3  H    0.000000   0.000000   0.000000   0.000000   0.000000   0.000000
     4  C    0.000040   0.000490  -0.001113  -0.000093   0.000027  -0.000024
     5  H    0.000000   0.000000   0.000000   0.000000   0.000000   0.000000
     6  C    0.000095   0.000376   0.001711  -0.000097   0.000075  -0.000044
     7  H    0.000000   0.000002  -0.000010   0.000000   0.000000   0.000000
     8  O   -0.000019   0.001470   0.000153  -0.000005   0.000001   0.000000
     9  O    0.000004  -0.001330  -0.065732  -0.002743   0.000371   0.000000
    10  H    0.000002   0.000107   0.002683  -0.000069   0.000028   0.000000
    11  H    0.000002   0.000118   0.014488  -0.000898  -0.001791   0.000000
    12  O    0.000642  -0.000717   0.000160   0.000003   0.000000   0.000000
    13  H    0.000010   0.000136  -0.000152   0.000000   0.000000   0.000000
    14  H   -0.000195  -0.000657  -0.000011   0.000000   0.000000   0.000000
    15  O    0.000000   0.000000   0.000000   0.000000   0.000000  -0.003928
    16  H    0.000000   0.000000   0.000000   0.000000   0.000000  -0.001693
    17  H    0.000000   0.000000   0.000000   0.000000   0.000000  -0.001815
    18  O    0.002232   0.013203  -0.002572  -0.000014   0.000093   0.000000
    19  H   -0.000131  -0.003583   0.000037   0.000000   0.000000   0.000000
    20  H    0.000001   0.005526   0.000033   0.000025   0.000016   0.000000
    21  O    0.000000   0.000000   0.000000   0.000000   0.000000  -0.084821
    22  H    0.000000   0.000000   0.000000   0.000000   0.000000   0.000083
    23  H    0.000000   0.000000   0.000000   0.000000   0.000000  -0.004591
    24  O    0.000000   0.000011   0.000000   0.000000   0.000000   0.000000
    25  H    0.000000   0.000000   0.000000   0.000000   0.000000   0.000000
    26  H    0.000000  -0.000001   0.000000   0.000000   0.000000   0.000000
    27  O    0.000000   0.000000   0.000000   0.000000   0.000000  -0.001047
    28  H    0.000000   0.000000   0.000000   0.000000   0.000000  -0.000006
    29  H    0.000000   0.000000   0.000000   0.000000   0.000000  -0.000037
    30  O   -0.000030  -0.000055  -0.000097  -0.000001  -0.000002   0.000000
    31  H    0.000001   0.000002  -0.000003   0.000000   0.000000   0.000000
    32  H    0.000000   0.000001   0.000010   0.000000   0.000000   0.000000
    33  O   -0.000001   0.000104   0.002588  -0.000504  -0.001800   0.000000
    34  H    0.000000   0.000007  -0.001915   0.000078   0.000049   0.000000
    35  H    0.000000   0.000000   0.002794  -0.000213  -0.000135   0.000000
    36  O    0.000000  -0.000001   0.000001   0.000000   0.000000   0.000000
    37  H    0.000000   0.000000   0.000000   0.000000   0.000000   0.000000
    38  H    0.000000   0.000000  -0.000001   0.000000   0.000000   0.000000
    39  O    0.000000   0.000000   0.000000   0.000000   0.000000  -0.000124
    40  H    0.000000   0.000000   0.000000   0.000000   0.000000   0.000005
    41  H    0.000000   0.000000   0.000000   0.000000   0.000000   0.000060
    42  O    0.210244   0.146067  -0.000129   0.000000   0.000001   0.000000
    43  H    0.183455  -0.001513   0.000001   0.000000   0.000000   0.000000
    44  H   -0.001513   0.224744   0.000040   0.000000   0.000001   0.000000
    45  O    0.000001   0.000040   8.838611   0.206463   0.211410   0.000000
    46  H    0.000000   0.000000   0.206463   0.171381  -0.010820   0.000000
    47  H    0.000000   0.000001   0.211410  -0.010820   0.184912   0.000000
    48  O    0.000000   0.000000   0.000000   0.000000   0.000000   8.979274
    49  H    0.000000   0.000000   0.000000   0.000000   0.000000   0.148734
    50  H    0.000000   0.000000   0.000000   0.000000   0.000000   0.207941
              49         50
     1  C   -0.000097  -0.000004
     2  H    0.000000   0.000000
     3  H    0.000000   0.000000
     4  C    0.000104   0.000001
     5  H    0.000000   0.000000
     6  C    0.000022   0.000003
     7  H    0.000000   0.000000
     8  O    0.000000   0.000000
     9  O    0.000000   0.000000
    10  H    0.000000   0.000000
    11  H    0.000000   0.000000
    12  O    0.000000   0.000000
    13  H    0.000000   0.000000
    14  H    0.000000   0.000000
    15  O    0.003514  -0.000546
    16  H    0.001041   0.000037
    17  H   -0.000694  -0.000109
    18  O    0.000000   0.000000
    19  H    0.000000   0.000000
    20  H    0.000000   0.000000
    21  O    0.012294   0.005368
    22  H    0.001971  -0.000080
    23  H   -0.003533  -0.000607
    24  O    0.000000   0.000000
    25  H    0.000000   0.000000
    26  H    0.000000   0.000000
    27  O    0.001187  -0.000160
    28  H   -0.000014   0.000002
    29  H   -0.000036   0.000001
    30  O    0.000000   0.000000
    31  H    0.000000   0.000000
    32  H    0.000000   0.000000
    33  O    0.000000   0.000000
    34  H    0.000000   0.000000
    35  H    0.000000   0.000000
    36  O    0.000000   0.000000
    37  H    0.000000   0.000000
    38  H    0.000000   0.000000
    39  O   -0.000009   0.000004
    40  H    0.000000   0.000000
    41  H   -0.000020   0.000000
    42  O    0.000000   0.000000
    43  H    0.000000   0.000000
    44  H    0.000000   0.000000
    45  O    0.000000   0.000000
    46  H    0.000000   0.000000
    47  H    0.000000   0.000000
    48  O    0.148734   0.207941
    49  H    0.216047  -0.007119
    50  H   -0.007119   0.204502
 Mulliken charges:
               1
     1  C   -0.387594
     2  H    0.242533
     3  H    0.250772
     4  C   -0.172617
     5  H    0.242141
     6  C    0.090576
     7  H    0.220351
     8  O   -0.419306
     9  O   -1.333087
    10  H    0.604749
    11  H    0.658534
    12  O   -1.158873
    13  H    0.531727
    14  H    0.592253
    15  O   -1.155137
    16  H    0.594722
    17  H    0.577169
    18  O   -1.256318
    19  H    0.658779
    20  H    0.654152
    21  O   -1.261908
    22  H    0.612247
    23  H    0.631580
    24  O   -1.043894
    25  H    0.603687
    26  H    0.439742
    27  O   -1.130314
    28  H    0.642712
    29  H    0.531315
    30  O   -1.284781
    31  H    0.694841
    32  H    0.593710
    33  O   -1.208407
    34  H    0.645424
    35  H    0.580131
    36  O   -1.134787
    37  H    0.471977
    38  H    0.601865
    39  O   -1.250857
    40  H    0.653609
    41  H    0.592774
    42  O   -1.261822
    43  H    0.605167
    44  H    0.615433
    45  O   -1.209346
    46  H    0.637506
    47  H    0.617565
    48  O   -1.238069
    49  H    0.626610
    50  H    0.590767
 Sum of Mulliken charges =   0.00000
 Mulliken charges with hydrogens summed into heavy atoms:
               1
     1  C    0.105711
     4  C    0.069524
     6  C    0.310928
     8  O   -0.419306
     9  O   -0.069804
    12  O   -0.034893
    15  O    0.016753
    18  O    0.056613
    21  O   -0.018082
    24  O   -0.000465
    27  O    0.043713
    30  O    0.003769
    33  O    0.017148
    36  O   -0.060945
    39  O   -0.004473
    42  O   -0.041222
    45  O    0.045725
    48  O   -0.020693
 Electronic spatial extent (au):  <R**2>=          13478.6744
 Charge=              0.0000 electrons
 Dipole moment (field-independent basis, Debye):
    X=              0.3171    Y=              0.9734    Z=             -3.3127  Tot=              3.4673
 Quadrupole moment (field-independent basis, Debye-Ang):
   XX=            -80.3596   YY=           -188.0269   ZZ=           -112.6781
   XY=              6.1016   XZ=             18.9418   YZ=             -3.2855
 Traceless Quadrupole moment (field-independent basis, Debye-Ang):
   XX=             46.6619   YY=            -61.0053   ZZ=             14.3434
   XY=              6.1016   XZ=             18.9418   YZ=             -3.2855
 Octapole moment (field-independent basis, Debye-Ang**2):
  XXX=           -551.2082  YYY=           -210.8009  ZZZ=             30.7177  XYY=            236.6654
  XXY=            149.5294  XXZ=             47.3402  XZZ=            -26.2321  YZZ=             19.2522
  YYZ=             28.4547  XYZ=             57.6044
 Hexadecapole moment (field-independent basis, Debye-Ang**3):
 XXXX=          -9427.3970 YYYY=          -5576.2832 ZZZZ=          -1145.7898 XXXY=            -79.2314
 XXXZ=           1805.9572 YYYX=           -291.7181 YYYZ=            -14.8898 ZZZX=            -77.8545
 ZZZY=            -50.1817 XXYY=          -2029.1099 XXZZ=          -2108.0110 YYZZ=           -932.9875
 XXYZ=           -387.0975 YYXZ=           -165.2260 ZZXY=            -40.8866
 N-N= 1.077840711870D+03 E-N=-6.120194581384D+03  KE= 1.249592145758D+03
 Leave Link  601 at Fri Sep 14 22:16:00 2018, MaxMem=    33554432 cpu:         6.5
 (Enter /usr/local/pacerepov1/gaussian/G09D01LINDA/g09/l9999.exe)

 Test job not archived.
 1\1\GINC-IW-H31-26\SP\RLC-wPBE TD-FC\6-31+G(d)\C3H32O15\ROOT\14-Sep-20
 18\0\\#p td=(nstates=15)/6-31+g(d) lc-wpbe charge\\Acroleina in Water\
 \0,1\C,0,0.485154,0.480443,-1.430142\H,0,1.461403,0.187773,-1.055732\H
 ,0,0.429244,0.878853,-2.437062\C,0,-0.605127,0.346563,-0.658432\H,0,-1
 .591686,0.632893,-1.012412\C,0,-0.508516,-0.199107,0.712798\H,0,-1.458
 487,-0.272107,1.272438\O,0,0.544883,-0.561317,1.236519\O,0,1.744295,-2
 .829721,2.078554\H,0,1.230805,-2.115501,1.602864\H,0,1.106925,-3.45109
 1,2.534214\O,0,-0.778695,0.096169,3.131554\H,0,-0.422965,-0.321041,2.2
 95254\H,0,-0.069055,0.087759,3.836114\O,0,0.652875,4.770039,-1.611686\
 H,0,0.831355,5.314919,-2.430986\H,0,-0.305135,4.874109,-1.344376\O,0,3
 .081075,-1.478191,3.734004\H,0,3.767105,-0.885331,3.312154\H,0,2.60541
 5,-1.995961,3.022874\O,0,-1.808675,5.319169,-1.431876\H,0,-2.663655,4.
 899459,-1.736636\H,0,-1.907745,5.628229,-0.486006\O,0,3.622355,2.49686
 9,0.216974\H,0,3.300205,3.358879,-0.174486\H,0,2.911105,1.800589,0.120
 354\O,0,-2.080855,5.785469,0.934544\H,0,-2.970595,5.359039,1.097644\H,
 0,-1.387205,5.334649,1.496374\O,0,-2.689125,-0.900751,3.894514\H,0,-2.
 343385,-1.746521,4.300913\H,0,-1.919805,-0.317491,3.633804\O,0,3.49091
 5,-4.300681,1.341864\H,0,2.805725,-3.593971,1.518304\H,0,3.450055,-4.9
 91981,2.063294\O,0,-4.122355,0.656669,3.007313\H,0,-3.478855,1.297769,
 2.589054\H,0,-3.626375,-0.147901,3.334004\O,0,3.094115,4.752779,-0.836
 546\H,0,3.677955,5.390439,-1.339036\H,0,2.169755,4.776299,-1.217436\O,
 0,1.494175,-0.450101,4.986293\H,0,1.967325,0.140429,5.640093\H,0,2.156
 245,-0.829151,4.339763\O,0,0.473305,-4.642641,2.968804\H,0,0.258855,-5
 .396731,2.348004\H,0,1.150645,-4.945351,3.639304\O,0,-1.439465,7.07231
 9,-2.894636\H,0,-1.518435,6.263779,-2.311446\H,0,-1.583835,7.895129,-2
 .344926\\Version=EM64L-G09RevD.01\State=1-A\HF=-1759.0696541\RMSD=6.32
 4e-09\PG=C01 [X(C3H32O15)]\\@


 GOD GAVE US TWO ENDS... ONE TO SIT ON...    
 AND THE OTHER TO THINK WITH...              
 YOUR SUCCESS DEPENDS UPON WHICH END YOU     
 USE THE MOST...                             
                                             
 IT'S A CASE OF HEADS YOU WIN TAILS YOU LOSE.
          SOURCE UNKNOWN(IT'S JUST AS WELL.) 
 Job cpu time:       0 days  4 hours 46 minutes 48.2 seconds.
 File lengths (MBytes):  RWF=    792 Int=      0 D2E=      0 Chk=     96 Scr=      2
 Normal termination of Gaussian 09 at Fri Sep 14 22:16:07 2018.
