 Entering Gaussian System, Link 0=g09
 Input=Acroleina_water_15_95c.gjf
 Output=Acroleina_water_15_95c.log
 Initial command:
 /usr/local/pacerepov1/gaussian/G09D01LINDA/g09/l1.exe /nv/hp18/holiveira7/scratch/22412051/Gau-7333.inp -scrdir=/nv/hp18/holiveira7/scratch/22412051/
 Entering Link 1 = /usr/local/pacerepov1/gaussian/G09D01LINDA/g09/l1.exe PID=      7334.
  
 Copyright (c) 1988,1990,1992,1993,1995,1998,2003,2009,2013,
            Gaussian, Inc.  All Rights Reserved.
  
 This is part of the Gaussian(R) 09 program.  It is based on
 the Gaussian(R) 03 system (copyright 2003, Gaussian, Inc.),
 the Gaussian(R) 98 system (copyright 1998, Gaussian, Inc.),
 the Gaussian(R) 94 system (copyright 1995, Gaussian, Inc.),
 the Gaussian 92(TM) system (copyright 1992, Gaussian, Inc.),
 the Gaussian 90(TM) system (copyright 1990, Gaussian, Inc.),
 the Gaussian 88(TM) system (copyright 1988, Gaussian, Inc.),
 the Gaussian 86(TM) system (copyright 1986, Carnegie Mellon
 University), and the Gaussian 82(TM) system (copyright 1983,
 Carnegie Mellon University). Gaussian is a federally registered
 trademark of Gaussian, Inc.
  
 This software contains proprietary and confidential information,
 including trade secrets, belonging to Gaussian, Inc.
  
 This software is provided under written license and may be
 used, copied, transmitted, or stored only in accord with that
 written license.
  
 The following legend is applicable only to US Government
 contracts under FAR:
  
                    RESTRICTED RIGHTS LEGEND
  
 Use, reproduction and disclosure by the US Government is
 subject to restrictions as set forth in subparagraphs (a)
 and (c) of the Commercial Computer Software - Restricted
 Rights clause in FAR 52.227-19.
  
 Gaussian, Inc.
 340 Quinnipiac St., Bldg. 40, Wallingford CT 06492
  
  
 ---------------------------------------------------------------
 Warning -- This program may not be used in any manner that
 competes with the business of Gaussian, Inc. or will provide
 assistance to any competitor of Gaussian, Inc.  The licensee
 of this program is prohibited from giving any competitor of
 Gaussian, Inc. access to this program.  By using this program,
 the user acknowledges that Gaussian, Inc. is engaged in the
 business of creating and licensing software in the field of
 computational chemistry and represents and warrants to the
 licensee that it is not a competitor of Gaussian, Inc. and that
 it will not use this program in any manner prohibited above.
 ---------------------------------------------------------------
  

 Cite this work as:
 Gaussian 09, Revision D.01,
 M. J. Frisch, G. W. Trucks, H. B. Schlegel, G. E. Scuseria, 
 M. A. Robb, J. R. Cheeseman, G. Scalmani, V. Barone, B. Mennucci, 
 G. A. Petersson, H. Nakatsuji, M. Caricato, X. Li, H. P. Hratchian, 
 A. F. Izmaylov, J. Bloino, G. Zheng, J. L. Sonnenberg, M. Hada, 
 M. Ehara, K. Toyota, R. Fukuda, J. Hasegawa, M. Ishida, T. Nakajima, 
 Y. Honda, O. Kitao, H. Nakai, T. Vreven, J. A. Montgomery, Jr., 
 J. E. Peralta, F. Ogliaro, M. Bearpark, J. J. Heyd, E. Brothers, 
 K. N. Kudin, V. N. Staroverov, T. Keith, R. Kobayashi, J. Normand, 
 K. Raghavachari, A. Rendell, J. C. Burant, S. S. Iyengar, J. Tomasi, 
 M. Cossi, N. Rega, J. M. Millam, M. Klene, J. E. Knox, J. B. Cross, 
 V. Bakken, C. Adamo, J. Jaramillo, R. Gomperts, R. E. Stratmann, 
 O. Yazyev, A. J. Austin, R. Cammi, C. Pomelli, J. W. Ochterski, 
 R. L. Martin, K. Morokuma, V. G. Zakrzewski, G. A. Voth, 
 P. Salvador, J. J. Dannenberg, S. Dapprich, A. D. Daniels, 
 O. Farkas, J. B. Foresman, J. V. Ortiz, J. Cioslowski, 
 and D. J. Fox, Gaussian, Inc., Wallingford CT, 2013.
 
 ******************************************
 Gaussian 09:  EM64L-G09RevD.01 24-Apr-2013
                14-Sep-2018 
 ******************************************
 %chk=Acrolina_Din_95.chk
 %nprocshared=10
 Will use up to   10 processors via shared memory.
 -------------------------------------------
 #p td=(nstates=15)/6-31+g(d) lc-wpbe charge
 -------------------------------------------
 1/18=10,28=-2,38=1,125=101/1;
 2/12=2,17=6,18=5,40=1/2;
 3/5=1,6=6,7=11,11=9,16=1,25=1,30=1,74=-41/1,2,8,3;
 4//1;
 5/5=2,38=5/2;
 8/6=1,10=2,108=15/1;
 9/41=15,42=1,70=2/14;
 6/7=2,8=2,9=2,10=2/1;
 99/5=1,9=1/99;
 Leave Link    1 at Fri Sep 14 17:55:47 2018, MaxMem=           0 cpu:         4.6
 (Enter /usr/local/pacerepov1/gaussian/G09D01LINDA/g09/l101.exe)
 ------------------
 Acroleina in Water
 ------------------
 Symbolic Z-matrix:
 Charge =  0 Multiplicity = 1
 C                     0.48515   0.48044  -1.43014 
 H                     1.4614    0.18777  -1.05573 
 H                     0.42924   0.87885  -2.43706 
 C                    -0.60513   0.34656  -0.65843 
 H                    -1.59169   0.63289  -1.01241 
 C                    -0.50852  -0.19911   0.7128 
 H                    -1.45849  -0.27211   1.27244 
 O                     0.54488  -0.56132   1.23652 
 O                     0.95607  -1.89157   2.68487 
 H                     0.45741  -1.13851   2.25558 
 H                     0.31012  -2.60062   2.96767 
 O                     2.13331  -0.28881   4.13893 
 H                     3.04205   0.05427   3.9011 
 H                     1.83577  -0.94975   3.44997 
 O                     4.51002  -1.26475  -3.53574 
 H                     5.26894  -0.82881  -3.05194 
 H                     4.01469  -0.57741  -4.06703 
 O                     3.46073   0.40736  -4.76895 
 H                     3.03968   0.81461  -5.57946 
 H                     4.15257   1.03049  -4.40409 
 O                     2.48168  -3.55011   1.95731 
 H                     1.9278   -2.79483   2.30781 
 H                     2.66674  -4.1984    2.69589 
 O                     2.67409   3.44185   0.74005 
 H                     2.2388    4.2077    0.2667 
 H                     2.17492   3.2445    1.58378 
 O                     0.4765    0.98452   5.14336 
 H                     1.03786   1.61149   5.68355 
 H                     1.06962   0.36631   4.62758 
 O                    -4.80595   1.60734   3.15573 
 H                    -4.17839   2.02732   2.50011 
 H                    -4.28265   1.20194   3.9053 
 O                     5.24831   1.72333  -3.50758 
 H                     5.91506   1.81452  -4.24729 
 H                     5.58825   1.06993  -2.83118 
 O                     4.89756   3.54999   0.11771 
 H                     5.00671   3.66826  -0.86926 
 H                     3.93315   3.39191   0.32978 
 O                    -0.28974  -3.64841   3.59268 
 H                    -0.72652  -4.33607   3.0127 
 H                     0.17085  -4.10059   4.35648 
 O                     4.5268   -3.22934   0.84628 
 H                     3.67055  -3.17701   1.36024 
 H                     4.42627  -3.88396   0.097 
 O                     5.62607  -0.33773   1.84247 
 H                     5.69722  -0.58152   0.87523 
 H                     5.73837  -1.15876   2.40222 
 O                     4.2547    0.30781   3.66829 
 H                     4.46846   1.23578   3.97361 
 H                     4.77369   0.10211   2.83859 
 
 NAtoms=     50 NQM=       50 NQMF=       0 NMMI=      0 NMMIF=      0
                NMic=       0 NMicF=      0.
                    Isotopes and Nuclear Properties:
 (Nuclear quadrupole moments (NQMom) in fm**2, nuclear magnetic moments (NMagM)
  in nuclear magnetons)

  Atom         1           2           3           4           5           6           7           8           9          10
 IAtWgt=          12           1           1          12           1          12           1          16          16           1
 AtmWgt=  12.0000000   1.0078250   1.0078250  12.0000000   1.0078250  12.0000000   1.0078250  15.9949146  15.9949146   1.0078250
 NucSpn=           0           1           1           0           1           0           1           0           0           1
 AtZEff=   0.0000000   0.0000000   0.0000000   0.0000000   0.0000000   0.0000000   0.0000000   0.0000000   0.0000000   0.0000000
 NQMom=    0.0000000   0.0000000   0.0000000   0.0000000   0.0000000   0.0000000   0.0000000   0.0000000   0.0000000   0.0000000
 NMagM=    0.0000000   2.7928460   2.7928460   0.0000000   2.7928460   0.0000000   2.7928460   0.0000000   0.0000000   2.7928460
 AtZNuc=   6.0000000   1.0000000   1.0000000   6.0000000   1.0000000   6.0000000   1.0000000   8.0000000   8.0000000   1.0000000

  Atom        11          12          13          14          15          16          17          18          19          20
 IAtWgt=           1          16           1           1          16           1           1          16           1           1
 AtmWgt=   1.0078250  15.9949146   1.0078250   1.0078250  15.9949146   1.0078250   1.0078250  15.9949146   1.0078250   1.0078250
 NucSpn=           1           0           1           1           0           1           1           0           1           1
 AtZEff=   0.0000000   0.0000000   0.0000000   0.0000000   0.0000000   0.0000000   0.0000000   0.0000000   0.0000000   0.0000000
 NQMom=    0.0000000   0.0000000   0.0000000   0.0000000   0.0000000   0.0000000   0.0000000   0.0000000   0.0000000   0.0000000
 NMagM=    2.7928460   0.0000000   2.7928460   2.7928460   0.0000000   2.7928460   2.7928460   0.0000000   2.7928460   2.7928460
 AtZNuc=   1.0000000   8.0000000   1.0000000   1.0000000   8.0000000   1.0000000   1.0000000   8.0000000   1.0000000   1.0000000

  Atom        21          22          23          24          25          26          27          28          29          30
 IAtWgt=          16           1           1          16           1           1          16           1           1          16
 AtmWgt=  15.9949146   1.0078250   1.0078250  15.9949146   1.0078250   1.0078250  15.9949146   1.0078250   1.0078250  15.9949146
 NucSpn=           0           1           1           0           1           1           0           1           1           0
 AtZEff=   0.0000000   0.0000000   0.0000000   0.0000000   0.0000000   0.0000000   0.0000000   0.0000000   0.0000000   0.0000000
 NQMom=    0.0000000   0.0000000   0.0000000   0.0000000   0.0000000   0.0000000   0.0000000   0.0000000   0.0000000   0.0000000
 NMagM=    0.0000000   2.7928460   2.7928460   0.0000000   2.7928460   2.7928460   0.0000000   2.7928460   2.7928460   0.0000000
 AtZNuc=   8.0000000   1.0000000   1.0000000   8.0000000   1.0000000   1.0000000   8.0000000   1.0000000   1.0000000   8.0000000

  Atom        31          32          33          34          35          36          37          38          39          40
 IAtWgt=           1           1          16           1           1          16           1           1          16           1
 AtmWgt=   1.0078250   1.0078250  15.9949146   1.0078250   1.0078250  15.9949146   1.0078250   1.0078250  15.9949146   1.0078250
 NucSpn=           1           1           0           1           1           0           1           1           0           1
 AtZEff=   0.0000000   0.0000000   0.0000000   0.0000000   0.0000000   0.0000000   0.0000000   0.0000000   0.0000000   0.0000000
 NQMom=    0.0000000   0.0000000   0.0000000   0.0000000   0.0000000   0.0000000   0.0000000   0.0000000   0.0000000   0.0000000
 NMagM=    2.7928460   2.7928460   0.0000000   2.7928460   2.7928460   0.0000000   2.7928460   2.7928460   0.0000000   2.7928460
 AtZNuc=   1.0000000   1.0000000   8.0000000   1.0000000   1.0000000   8.0000000   1.0000000   1.0000000   8.0000000   1.0000000

  Atom        41          42          43          44          45          46          47          48          49          50
 IAtWgt=           1          16           1           1          16           1           1          16           1           1
 AtmWgt=   1.0078250  15.9949146   1.0078250   1.0078250  15.9949146   1.0078250   1.0078250  15.9949146   1.0078250   1.0078250
 NucSpn=           1           0           1           1           0           1           1           0           1           1
 AtZEff=   0.0000000   0.0000000   0.0000000   0.0000000   0.0000000   0.0000000   0.0000000   0.0000000   0.0000000   0.0000000
 NQMom=    0.0000000   0.0000000   0.0000000   0.0000000   0.0000000   0.0000000   0.0000000   0.0000000   0.0000000   0.0000000
 NMagM=    2.7928460   0.0000000   2.7928460   2.7928460   0.0000000   2.7928460   2.7928460   0.0000000   2.7928460   2.7928460
 AtZNuc=   1.0000000   8.0000000   1.0000000   1.0000000   8.0000000   1.0000000   1.0000000   8.0000000   1.0000000   1.0000000
 Background charge distribution read from input stream:
 Point Charges:
 XYZ=    5.3329    3.7791   -2.0467 Q=   -0.8200 A=    0.0000 R=    0.0000 C=    0.0000
 XYZ=    5.4136    4.6396   -2.5499 Q=    0.4100 A=    0.0000 R=    0.0000 C=    0.0000
 XYZ=    4.9793    3.0689   -2.6555 Q=    0.4100 A=    0.0000 R=    0.0000 C=    0.0000
 XYZ=    5.8289   -1.5798   -0.2567 Q=   -0.8200 A=    0.0000 R=    0.0000 C=    0.0000
 XYZ=    5.2424   -2.2280    0.2291 Q=    0.4100 A=    0.0000 R=    0.0000 C=    0.0000
 XYZ=    6.7311   -1.9875   -0.3975 Q=    0.4100 A=    0.0000 R=    0.0000 C=    0.0000
 XYZ=   -1.7076    1.8985    5.1139 Q=   -0.8200 A=    0.0000 R=    0.0000 C=    0.0000
 XYZ=   -1.7547    2.7431    5.6472 Q=    0.4100 A=    0.0000 R=    0.0000 C=    0.0000
 XYZ=   -0.7526    1.6175    5.0183 Q=    0.4100 A=    0.0000 R=    0.0000 C=    0.0000
 XYZ=   -6.0934   -0.0967    2.3063 Q=   -0.8200 A=    0.0000 R=    0.0000 C=    0.0000
 XYZ=   -5.4293    0.6089    2.5534 Q=    0.4100 A=    0.0000 R=    0.0000 C=    0.0000
 XYZ=   -5.8794   -0.9420    2.7961 Q=    0.4100 A=    0.0000 R=    0.0000 C=    0.0000
 XYZ=   -3.4483    0.5510    4.5438 Q=   -0.8200 A=    0.0000 R=    0.0000 C=    0.0000
 XYZ=   -3.3335   -0.3578    4.9448 Q=    0.4100 A=    0.0000 R=    0.0000 C=    0.0000
 XYZ=   -2.6239    1.0933    4.7056 Q=    0.4100 A=    0.0000 R=    0.0000 C=    0.0000
 XYZ=    6.1021   -0.2139   -2.1861 Q=   -0.8200 A=    0.0000 R=    0.0000 C=    0.0000
 XYZ=    6.9687    0.2742   -2.0823 Q=    0.4100 A=    0.0000 R=    0.0000 C=    0.0000
 XYZ=    5.9470   -0.7918   -1.3849 Q=    0.4100 A=    0.0000 R=    0.0000 C=    0.0000
 XYZ=   -0.7273   -0.9957    6.0500 Q=   -0.8200 A=    0.0000 R=    0.0000 C=    0.0000
 XYZ=   -0.2047   -0.2104    5.7178 Q=    0.4100 A=    0.0000 R=    0.0000 C=    0.0000
 XYZ=   -1.6488   -0.9708    5.6624 Q=    0.4100 A=    0.0000 R=    0.0000 C=    0.0000
 XYZ=   -2.4705   -3.7257    4.7664 Q=   -0.8200 A=    0.0000 R=    0.0000 C=    0.0000
 XYZ=   -1.6268   -3.5410    4.2622 Q=    0.4100 A=    0.0000 R=    0.0000 C=    0.0000
 XYZ=   -2.3666   -4.5701    5.2920 Q=    0.4100 A=    0.0000 R=    0.0000 C=    0.0000
 XYZ=    6.4156    1.8169    1.0775 Q=   -0.8200 A=    0.0000 R=    0.0000 C=    0.0000
 XYZ=    5.7131    2.5277    1.0403 Q=    0.4100 A=    0.0000 R=    0.0000 C=    0.0000
 XYZ=    6.0149    0.9703    1.4278 Q=    0.4100 A=    0.0000 R=    0.0000 C=    0.0000
 XYZ=    4.6569   -3.7081   -3.4525 Q=   -0.8200 A=    0.0000 R=    0.0000 C=    0.0000
 XYZ=    4.4776   -2.7250   -3.4909 Q=    0.4100 A=    0.0000 R=    0.0000 C=    0.0000
 XYZ=    4.4001   -4.1280   -4.3230 Q=    0.4100 A=    0.0000 R=    0.0000 C=    0.0000
 XYZ=    2.3039    1.4589   -6.6829 Q=   -0.8200 A=    0.0000 R=    0.0000 C=    0.0000
 XYZ=    2.4977    2.2601   -7.2491 Q=    0.4100 A=    0.0000 R=    0.0000 C=    0.0000
 XYZ=    1.4302    1.5860   -6.2135 Q=    0.4100 A=    0.0000 R=    0.0000 C=    0.0000
 XYZ=    2.1312   -4.9690   -0.0379 Q=   -0.8200 A=    0.0000 R=    0.0000 C=    0.0000
 XYZ=    2.1877   -4.4271    0.8007 Q=    0.4100 A=    0.0000 R=    0.0000 C=    0.0000
 XYZ=    3.0258   -4.9860   -0.4845 Q=    0.4100 A=    0.0000 R=    0.0000 C=    0.0000
 XYZ=   -7.0593   -0.5950    0.1088 Q=   -0.8200 A=    0.0000 R=    0.0000 C=    0.0000
 XYZ=   -6.6063   -0.2497    0.9307 Q=    0.4100 A=    0.0000 R=    0.0000 C=    0.0000
 XYZ=   -7.1493   -1.5891    0.1707 Q=    0.4100 A=    0.0000 R=    0.0000 C=    0.0000
 XYZ=   -3.6788   -4.7585    1.2355 Q=   -0.8200 A=    0.0000 R=    0.0000 C=    0.0000
 XYZ=   -3.5805   -5.7300    1.0200 Q=    0.4100 A=    0.0000 R=    0.0000 C=    0.0000
 XYZ=   -4.2542   -4.3205    0.5448 Q=    0.4100 A=    0.0000 R=    0.0000 C=    0.0000
 XYZ=    2.9579   -1.4363    5.9859 Q=   -0.8200 A=    0.0000 R=    0.0000 C=    0.0000
 XYZ=    2.5436   -1.0321    5.1704 Q=    0.4100 A=    0.0000 R=    0.0000 C=    0.0000
 XYZ=    3.0751   -0.7307    6.6848 Q=    0.4100 A=    0.0000 R=    0.0000 C=    0.0000
 XYZ=    4.4649   -1.9778   -6.1592 Q=   -0.8200 A=    0.0000 R=    0.0000 C=    0.0000
 XYZ=    4.4575   -1.6580   -5.2117 Q=    0.4100 A=    0.0000 R=    0.0000 C=    0.0000
 XYZ=    5.3905   -2.2637   -6.4073 Q=    0.4100 A=    0.0000 R=    0.0000 C=    0.0000
 XYZ=   -1.4042   -5.0713    1.9454 Q=   -0.8200 A=    0.0000 R=    0.0000 C=    0.0000
 XYZ=   -0.9112   -5.2170    1.0876 Q=    0.4100 A=    0.0000 R=    0.0000 C=    0.0000
 XYZ=   -2.3637   -4.8699    1.7483 Q=    0.4100 A=    0.0000 R=    0.0000 C=    0.0000
 XYZ=   -0.2533   -5.3404   -0.1222 Q=   -0.8200 A=    0.0000 R=    0.0000 C=    0.0000
 XYZ=    0.7450   -5.3106   -0.0712 Q=    0.4100 A=    0.0000 R=    0.0000 C=    0.0000
 XYZ=   -0.5605   -4.8433   -0.9335 Q=    0.4100 A=    0.0000 R=    0.0000 C=    0.0000
 XYZ=   -2.9456   -1.4938    5.5191 Q=   -0.8200 A=    0.0000 R=    0.0000 C=    0.0000
 XYZ=   -3.3531   -1.5564    6.4301 Q=    0.4100 A=    0.0000 R=    0.0000 C=    0.0000
 XYZ=   -2.8258   -2.4129    5.1437 Q=    0.4100 A=    0.0000 R=    0.0000 C=    0.0000
 XYZ=    2.2395    5.5356   -0.3804 Q=   -0.8200 A=    0.0000 R=    0.0000 C=    0.0000
 XYZ=    2.8029    6.0779   -1.0037 Q=    0.4100 A=    0.0000 R=    0.0000 C=    0.0000
 XYZ=    1.2727    5.7095   -0.5682 Q=    0.4100 A=    0.0000 R=    0.0000 C=    0.0000
 XYZ=    0.8110   -2.9395    6.5828 Q=   -0.8200 A=    0.0000 R=    0.0000 C=    0.0000
 XYZ=    1.7106   -2.5070    6.5228 Q=    0.4100 A=    0.0000 R=    0.0000 C=    0.0000
 XYZ=    0.1179   -2.3198    6.2145 Q=    0.4100 A=    0.0000 R=    0.0000 C=    0.0000
 XYZ=   -4.3909   -4.1855    3.3985 Q=   -0.8200 A=    0.0000 R=    0.0000 C=    0.0000
 XYZ=   -3.6550   -3.7210    3.8912 Q=    0.4100 A=    0.0000 R=    0.0000 C=    0.0000
 XYZ=   -4.0550   -4.4895    2.5070 Q=    0.4100 A=    0.0000 R=    0.0000 C=    0.0000
 XYZ=   -4.0482    3.2169   -5.5830 Q=   -0.8200 A=    0.0000 R=    0.0000 C=    0.0000
 XYZ=   -3.5731    2.4218   -5.9600 Q=    0.4100 A=    0.0000 R=    0.0000 C=    0.0000
 XYZ=   -3.3843    3.8287   -5.1527 Q=    0.4100 A=    0.0000 R=    0.0000 C=    0.0000
 XYZ=    4.1180   -4.8359   -1.0021 Q=   -0.8200 A=    0.0000 R=    0.0000 C=    0.0000
 XYZ=    5.0563   -5.1793   -0.9619 Q=    0.4100 A=    0.0000 R=    0.0000 C=    0.0000
 XYZ=    3.8974   -4.5780   -1.9427 Q=    0.4100 A=    0.0000 R=    0.0000 C=    0.0000
 XYZ=    5.1459   -1.2888    5.1575 Q=   -0.8200 A=    0.0000 R=    0.0000 C=    0.0000
 XYZ=    4.8661   -0.5758    4.5146 Q=    0.4100 A=    0.0000 R=    0.0000 C=    0.0000
 XYZ=    4.3538   -1.5865    5.6904 Q=    0.4100 A=    0.0000 R=    0.0000 C=    0.0000
 XYZ=    5.0248   -4.5296    2.7940 Q=   -0.8200 A=    0.0000 R=    0.0000 C=    0.0000
 XYZ=    4.9071   -4.0062    1.9500 Q=    0.4100 A=    0.0000 R=    0.0000 C=    0.0000
 XYZ=    4.1439   -4.6130    3.2600 Q=    0.4100 A=    0.0000 R=    0.0000 C=    0.0000
 XYZ=    5.7662    4.5541    1.9722 Q=   -0.8200 A=    0.0000 R=    0.0000 C=    0.0000
 XYZ=    5.1684    5.2103    2.4327 Q=    0.4100 A=    0.0000 R=    0.0000 C=    0.0000
 XYZ=    5.2900    4.1660    1.1832 Q=    0.4100 A=    0.0000 R=    0.0000 C=    0.0000
 XYZ=    0.5070    6.1975   -4.6036 Q=   -0.8200 A=    0.0000 R=    0.0000 C=    0.0000
 XYZ=    0.3788    5.2393   -4.3479 Q=    0.4100 A=    0.0000 R=    0.0000 C=    0.0000
 XYZ=    1.3340    6.2866   -5.1587 Q=    0.4100 A=    0.0000 R=    0.0000 C=    0.0000
 XYZ=    7.2307    3.0563   -0.9433 Q=   -0.8200 A=    0.0000 R=    0.0000 C=    0.0000
 XYZ=    6.5173    3.4815   -1.5003 Q=    0.4100 A=    0.0000 R=    0.0000 C=    0.0000
 XYZ=    6.8202    2.6599   -0.1220 Q=    0.4100 A=    0.0000 R=    0.0000 C=    0.0000
 XYZ=   -4.4381    5.1195   -1.2796 Q=   -0.8200 A=    0.0000 R=    0.0000 C=    0.0000
 XYZ=   -5.0443    5.8468   -0.9576 Q=    0.4100 A=    0.0000 R=    0.0000 C=    0.0000
 XYZ=   -4.9572    4.2700   -1.3734 Q=    0.4100 A=    0.0000 R=    0.0000 C=    0.0000
 XYZ=   -2.6674    4.9027   -4.5104 Q=   -0.8200 A=    0.0000 R=    0.0000 C=    0.0000
 XYZ=   -3.3310    5.5699   -4.1720 Q=    0.4100 A=    0.0000 R=    0.0000 C=    0.0000
 XYZ=   -2.0520    5.3460   -5.1623 Q=    0.4100 A=    0.0000 R=    0.0000 C=    0.0000
 XYZ=   -7.7480    0.9862   -1.7566 Q=   -0.8200 A=    0.0000 R=    0.0000 C=    0.0000
 XYZ=   -7.2117    0.8049   -2.5810 Q=    0.4100 A=    0.0000 R=    0.0000 C=    0.0000
 XYZ=   -7.4143    0.4119   -1.0090 Q=    0.4100 A=    0.0000 R=    0.0000 C=    0.0000
 XYZ=    4.0769   -0.0266   -7.4503 Q=   -0.8200 A=    0.0000 R=    0.0000 C=    0.0000
 XYZ=    4.2194   -0.8299   -6.8720 Q=    0.4100 A=    0.0000 R=    0.0000 C=    0.0000
 XYZ=    3.1529    0.3279   -7.3064 Q=    0.4100 A=    0.0000 R=    0.0000 C=    0.0000
 XYZ=   -7.2160   -2.8881    0.7877 Q=   -0.8200 A=    0.0000 R=    0.0000 C=    0.0000
 XYZ=   -6.6861   -3.4886    0.1888 Q=    0.4100 A=    0.0000 R=    0.0000 C=    0.0000
 XYZ=   -6.7428   -2.7886    1.6630 Q=    0.4100 A=    0.0000 R=    0.0000 C=    0.0000
 XYZ=   -6.1515   -2.8918    2.8422 Q=   -0.8200 A=    0.0000 R=    0.0000 C=    0.0000
 XYZ=   -6.3921   -2.3797    3.6668 Q=    0.4100 A=    0.0000 R=    0.0000 C=    0.0000
 XYZ=   -5.5274   -3.6355    3.0820 Q=    0.4100 A=    0.0000 R=    0.0000 C=    0.0000
 XYZ=   -2.4317    6.2567   -0.8036 Q=   -0.8200 A=    0.0000 R=    0.0000 C=    0.0000
 XYZ=   -3.0711    5.5417   -1.0863 Q=    0.4100 A=    0.0000 R=    0.0000 C=    0.0000
 XYZ=   -2.7275    6.6416    0.0707 Q=    0.4100 A=    0.0000 R=    0.0000 C=    0.0000
 XYZ=    0.1165    6.0534   -0.9417 Q=   -0.8200 A=    0.0000 R=    0.0000 C=    0.0000
 XYZ=    0.2960    6.6852   -1.6958 Q=    0.4100 A=    0.0000 R=    0.0000 C=    0.0000
 XYZ=   -0.8512    6.0971   -0.6934 Q=    0.4100 A=    0.0000 R=    0.0000 C=    0.0000
 XYZ=   -5.6220   -4.4674   -0.7405 Q=   -0.8200 A=    0.0000 R=    0.0000 C=    0.0000
 XYZ=   -5.5467   -4.6115   -1.7273 Q=    0.4100 A=    0.0000 R=    0.0000 C=    0.0000
 XYZ=   -5.6091   -5.3512   -0.2727 Q=    0.4100 A=    0.0000 R=    0.0000 C=    0.0000
 XYZ=   -8.2236    0.5496    2.6786 Q=   -0.8200 A=    0.0000 R=    0.0000 C=    0.0000
 XYZ=   -7.2831    0.2521    2.5145 Q=    0.4100 A=    0.0000 R=    0.0000 C=    0.0000
 XYZ=   -8.2628    1.5488    2.6738 Q=    0.4100 A=    0.0000 R=    0.0000 C=    0.0000
 XYZ=    5.9733   -2.4520    3.2710 Q=   -0.8200 A=    0.0000 R=    0.0000 C=    0.0000
 XYZ=    5.8944   -2.1334    4.2156 Q=    0.4100 A=    0.0000 R=    0.0000 C=    0.0000
 XYZ=    5.5964   -3.3754    3.1981 Q=    0.4100 A=    0.0000 R=    0.0000 C=    0.0000
 XYZ=   -6.3815    2.6312    4.6240 Q=   -0.8200 A=    0.0000 R=    0.0000 C=    0.0000
 XYZ=   -5.7184    2.2120    4.0038 Q=    0.4100 A=    0.0000 R=    0.0000 C=    0.0000
 XYZ=   -6.8186    1.9201    5.1747 Q=    0.4100 A=    0.0000 R=    0.0000 C=    0.0000
 XYZ=    6.9641   -3.5544   -2.2780 Q=   -0.8200 A=    0.0000 R=    0.0000 C=    0.0000
 XYZ=    6.0720   -3.4333   -2.7133 Q=    0.4100 A=    0.0000 R=    0.0000 C=    0.0000
 XYZ=    7.6754   -3.5895   -2.9800 Q=    0.4100 A=    0.0000 R=    0.0000 C=    0.0000
 XYZ=   -6.1504   -4.1509   -3.5095 Q=   -0.8200 A=    0.0000 R=    0.0000 C=    0.0000
 XYZ=   -6.5018   -3.7598   -4.3602 Q=    0.4100 A=    0.0000 R=    0.0000 C=    0.0000
 XYZ=   -5.5960   -3.4685   -3.0331 Q=    0.4100 A=    0.0000 R=    0.0000 C=    0.0000
 XYZ=    2.9516   -5.2016    3.7493 Q=   -0.8200 A=    0.0000 R=    0.0000 C=    0.0000
 XYZ=    3.1008   -6.1904    3.7422 Q=    0.4100 A=    0.0000 R=    0.0000 C=    0.0000
 XYZ=    2.1334   -4.9917    4.2847 Q=    0.4100 A=    0.0000 R=    0.0000 C=    0.0000
 XYZ=    2.0783    2.1227    6.4726 Q=   -0.8200 A=    0.0000 R=    0.0000 C=    0.0000
 XYZ=    2.6218    1.4203    6.9322 Q=    0.4100 A=    0.0000 R=    0.0000 C=    0.0000
 XYZ=    2.6332    2.9453    6.3483 Q=    0.4100 A=    0.0000 R=    0.0000 C=    0.0000
 XYZ=    1.1215   -4.9611    5.2238 Q=   -0.8200 A=    0.0000 R=    0.0000 C=    0.0000
 XYZ=    0.5256   -5.7543    5.3495 Q=    0.4100 A=    0.0000 R=    0.0000 C=    0.0000
 XYZ=    0.9839   -4.3181    5.9772 Q=    0.4100 A=    0.0000 R=    0.0000 C=    0.0000
 XYZ=    4.8774    2.2178    4.9444 Q=   -0.8200 A=    0.0000 R=    0.0000 C=    0.0000
 XYZ=    5.1032    1.5754    5.6767 Q=    0.4100 A=    0.0000 R=    0.0000 C=    0.0000
 XYZ=    4.2816    2.9364    5.3033 Q=    0.4100 A=    0.0000 R=    0.0000 C=    0.0000
 XYZ=   -1.5659   -7.3431    2.7218 Q=   -0.8200 A=    0.0000 R=    0.0000 C=    0.0000
 XYZ=   -1.5259   -6.3684    2.5015 Q=    0.4100 A=    0.0000 R=    0.0000 C=    0.0000
 XYZ=   -1.5283   -7.8775    1.8774 Q=    0.4100 A=    0.0000 R=    0.0000 C=    0.0000
 XYZ=   -2.0099   -0.4263    8.1548 Q=   -0.8200 A=    0.0000 R=    0.0000 C=    0.0000
 XYZ=   -1.3082   -0.7371    7.5138 Q=    0.4100 A=    0.0000 R=    0.0000 C=    0.0000
 XYZ=   -1.6973   -0.5809    9.0920 Q=    0.4100 A=    0.0000 R=    0.0000 C=    0.0000
 XYZ=    2.6717    6.6971    1.6536 Q=   -0.8200 A=    0.0000 R=    0.0000 C=    0.0000
 XYZ=    2.4966    6.2295    0.7871 Q=    0.4100 A=    0.0000 R=    0.0000 C=    0.0000
 XYZ=    2.7687    7.6787    1.4890 Q=    0.4100 A=    0.0000 R=    0.0000 C=    0.0000
 XYZ=   -5.4753   -0.3113    6.1536 Q=   -0.8200 A=    0.0000 R=    0.0000 C=    0.0000
 XYZ=   -4.8748    0.3238    5.6677 Q=    0.4100 A=    0.0000 R=    0.0000 C=    0.0000
 XYZ=   -4.9235   -0.9296    6.7132 Q=    0.4100 A=    0.0000 R=    0.0000 C=    0.0000
 XYZ=    8.0892    0.9285   -1.6107 Q=   -0.8200 A=    0.0000 R=    0.0000 C=    0.0000
 XYZ=    7.9333    1.9067   -1.4736 Q=    0.4100 A=    0.0000 R=    0.0000 C=    0.0000
 XYZ=    8.5832    0.5563   -0.8249 Q=    0.4100 A=    0.0000 R=    0.0000 C=    0.0000
 XYZ=   -6.8832    3.3550   -1.4845 Q=   -0.8200 A=    0.0000 R=    0.0000 C=    0.0000
 XYZ=   -7.3074    2.4806   -1.7204 Q=    0.4100 A=    0.0000 R=    0.0000 C=    0.0000
 XYZ=   -7.2127    4.0642   -2.1077 Q=    0.4100 A=    0.0000 R=    0.0000 C=    0.0000
 XYZ=    7.0179    1.9479   -5.0401 Q=   -0.8200 A=    0.0000 R=    0.0000 C=    0.0000
 XYZ=    7.2942    2.8833   -4.8192 Q=    0.4100 A=    0.0000 R=    0.0000 C=    0.0000
 XYZ=    7.7953    1.3319   -4.9127 Q=    0.4100 A=    0.0000 R=    0.0000 C=    0.0000
 XYZ=    8.5130    1.9994    1.9829 Q=   -0.8200 A=    0.0000 R=    0.0000 C=    0.0000
 XYZ=    8.4992    1.9538    2.9819 Q=    0.4100 A=    0.0000 R=    0.0000 C=    0.0000
 XYZ=    7.5777    2.0889    1.6404 Q=    0.4100 A=    0.0000 R=    0.0000 C=    0.0000
 XYZ=    6.1349    1.1497   -7.1792 Q=   -0.8200 A=    0.0000 R=    0.0000 C=    0.0000
 XYZ=    6.4782    1.3539   -6.2624 Q=    0.4100 A=    0.0000 R=    0.0000 C=    0.0000
 XYZ=    5.2804    0.6350   -7.1081 Q=    0.4100 A=    0.0000 R=    0.0000 C=    0.0000
 XYZ=    3.7317    7.0230   -1.4767 Q=   -0.8200 A=    0.0000 R=    0.0000 C=    0.0000
 XYZ=    4.1946    7.4419   -0.6955 Q=    0.4100 A=    0.0000 R=    0.0000 C=    0.0000
 XYZ=    4.3615    6.4021   -1.9434 Q=    0.4100 A=    0.0000 R=    0.0000 C=    0.0000
 XYZ=    7.9659   -2.8223    1.8594 Q=   -0.8200 A=    0.0000 R=    0.0000 C=    0.0000
 XYZ=    7.2158   -2.4741    2.4218 Q=    0.4100 A=    0.0000 R=    0.0000 C=    0.0000
 XYZ=    7.8725   -2.4741    0.9266 Q=    0.4100 A=    0.0000 R=    0.0000 C=    0.0000
 XYZ=   -7.2256    4.0783    0.7892 Q=   -0.8200 A=    0.0000 R=    0.0000 C=    0.0000
 XYZ=   -6.3374    4.5359    0.8335 Q=    0.4100 A=    0.0000 R=    0.0000 C=    0.0000
 XYZ=   -7.3485    3.6765   -0.1183 Q=    0.4100 A=    0.0000 R=    0.0000 C=    0.0000
 XYZ=    7.9210   -2.4896   -0.3775 Q=   -0.8200 A=    0.0000 R=    0.0000 C=    0.0000
 XYZ=    8.8835   -2.4264   -0.6416 Q=    0.4100 A=    0.0000 R=    0.0000 C=    0.0000
 XYZ=    7.4058   -2.9465   -1.1027 Q=    0.4100 A=    0.0000 R=    0.0000 C=    0.0000
 XYZ=   -5.1203    5.4227    1.3670 Q=   -0.8200 A=    0.0000 R=    0.0000 C=    0.0000
 XYZ=   -5.5710    5.9780    0.6681 Q=    0.4100 A=    0.0000 R=    0.0000 C=    0.0000
 XYZ=   -5.6540    5.4529    2.2121 Q=    0.4100 A=    0.0000 R=    0.0000 C=    0.0000
 XYZ=    5.2500    5.9712   -3.0106 Q=   -0.8200 A=    0.0000 R=    0.0000 C=    0.0000
 XYZ=    6.1703    6.2446   -2.7308 Q=    0.4100 A=    0.0000 R=    0.0000 C=    0.0000
 XYZ=    5.0971    6.2404   -3.9615 Q=    0.4100 A=    0.0000 R=    0.0000 C=    0.0000
 XYZ=    6.7507    3.3033    3.9582 Q=   -0.8200 A=    0.0000 R=    0.0000 C=    0.0000
 XYZ=    6.5069    3.5599    3.0229 Q=    0.4100 A=    0.0000 R=    0.0000 C=    0.0000
 XYZ=    6.0251    2.7362    4.3480 Q=    0.4100 A=    0.0000 R=    0.0000 C=    0.0000
 XYZ=   -5.8285    4.6833   -4.8946 Q=   -0.8200 A=    0.0000 R=    0.0000 C=    0.0000
 XYZ=   -6.2609    4.9996   -5.7390 Q=    0.4100 A=    0.0000 R=    0.0000 C=    0.0000
 XYZ=   -5.0910    4.0455   -5.1165 Q=    0.4100 A=    0.0000 R=    0.0000 C=    0.0000
 XYZ=    3.6011   -3.6420   -7.8724 Q=   -0.8200 A=    0.0000 R=    0.0000 C=    0.0000
 XYZ=    4.2243   -3.5302   -8.6464 Q=    0.4100 A=    0.0000 R=    0.0000 C=    0.0000
 XYZ=    3.8300   -2.9771   -7.1614 Q=    0.4100 A=    0.0000 R=    0.0000 C=    0.0000
 XYZ=   -4.2600    6.2720   -3.6107 Q=   -0.8200 A=    0.0000 R=    0.0000 C=    0.0000
 XYZ=   -4.2477    6.0901   -2.6274 Q=    0.4100 A=    0.0000 R=    0.0000 C=    0.0000
 XYZ=   -4.9424    5.6872   -4.0493 Q=    0.4100 A=    0.0000 R=    0.0000 C=    0.0000
 XYZ=   -8.2132    2.9903    2.8067 Q=   -0.8200 A=    0.0000 R=    0.0000 C=    0.0000
 XYZ=   -7.6804    3.1570    1.9770 Q=    0.4100 A=    0.0000 R=    0.0000 C=    0.0000
 XYZ=   -7.6261    3.1038    3.6082 Q=    0.4100 A=    0.0000 R=    0.0000 C=    0.0000
 XYZ=   -1.2021   -4.7856   -7.3859 Q=   -0.8200 A=    0.0000 R=    0.0000 C=    0.0000
 XYZ=   -0.8408   -3.8721   -7.1984 Q=    0.4100 A=    0.0000 R=    0.0000 C=    0.0000
 XYZ=   -1.9506   -4.9843   -6.7532 Q=    0.4100 A=    0.0000 R=    0.0000 C=    0.0000
 XYZ=   -6.7853   -1.9379    5.0151 Q=   -0.8200 A=    0.0000 R=    0.0000 C=    0.0000
 XYZ=   -7.6701   -1.4917    4.8803 Q=    0.4100 A=    0.0000 R=    0.0000 C=    0.0000
 XYZ=   -6.1698   -1.3174    5.5011 Q=    0.4100 A=    0.0000 R=    0.0000 C=    0.0000
 XYZ=    2.9077    3.1942   -8.1092 Q=   -0.8200 A=    0.0000 R=    0.0000 C=    0.0000
 XYZ=    3.8976    3.3155   -8.1818 Q=    0.4100 A=    0.0000 R=    0.0000 C=    0.0000
 XYZ=    2.5668    2.7371   -8.9308 Q=    0.4100 A=    0.0000 R=    0.0000 C=    0.0000
 XYZ=    1.5750    5.0757   -7.2011 Q=   -0.8200 A=    0.0000 R=    0.0000 C=    0.0000
 XYZ=    2.1398    5.6537   -6.6121 Q=    0.4100 A=    0.0000 R=    0.0000 C=    0.0000
 XYZ=    2.1473    4.3765   -7.6296 Q=    0.4100 A=    0.0000 R=    0.0000 C=    0.0000
 XYZ=   -5.7613   -5.4888    4.7386 Q=   -0.8200 A=    0.0000 R=    0.0000 C=    0.0000
 XYZ=   -5.2159   -4.9367    4.1080 Q=    0.4100 A=    0.0000 R=    0.0000 C=    0.0000
 XYZ=   -6.5275   -4.9449    5.0807 Q=    0.4100 A=    0.0000 R=    0.0000 C=    0.0000
 XYZ=    6.3434   -5.4624   -1.0607 Q=   -0.8200 A=    0.0000 R=    0.0000 C=    0.0000
 XYZ=    7.0707   -5.8997   -0.5317 Q=    0.4100 A=    0.0000 R=    0.0000 C=    0.0000
 XYZ=    6.7217   -4.6926   -1.5747 Q=    0.4100 A=    0.0000 R=    0.0000 C=    0.0000
 XYZ=   -5.0357    3.3581   -7.6971 Q=   -0.8200 A=    0.0000 R=    0.0000 C=    0.0000
 XYZ=   -5.4520    2.5565   -8.1261 Q=    0.4100 A=    0.0000 R=    0.0000 C=    0.0000
 XYZ=   -4.8803    3.1737   -6.7266 Q=    0.4100 A=    0.0000 R=    0.0000 C=    0.0000
 XYZ=   -3.6309   -6.9505    0.6694 Q=   -0.8200 A=    0.0000 R=    0.0000 C=    0.0000
 XYZ=   -4.5787   -6.9381    0.3507 Q=    0.4100 A=    0.0000 R=    0.0000 C=    0.0000
 XYZ=   -3.2411   -7.8594    0.5209 Q=    0.4100 A=    0.0000 R=    0.0000 C=    0.0000
 XYZ=   -3.3466    7.2228    1.1263 Q=   -0.8200 A=    0.0000 R=    0.0000 C=    0.0000
 XYZ=   -4.0302    6.5052    1.2603 Q=    0.4100 A=    0.0000 R=    0.0000 C=    0.0000
 XYZ=   -3.8025    8.0714    0.8576 Q=    0.4100 A=    0.0000 R=    0.0000 C=    0.0000
 XYZ=    0.2532    7.7592   -2.6286 Q=   -0.8200 A=    0.0000 R=    0.0000 C=    0.0000
 XYZ=   -0.7182    7.9870   -2.5602 Q=    0.4100 A=    0.0000 R=    0.0000 C=    0.0000
 XYZ=    0.4159    7.2425   -3.4693 Q=    0.4100 A=    0.0000 R=    0.0000 C=    0.0000
 XYZ=    4.6052    6.4221    2.9388 Q=   -0.8200 A=    0.0000 R=    0.0000 C=    0.0000
 XYZ=    4.1760    6.3362    3.8379 Q=    0.4100 A=    0.0000 R=    0.0000 C=    0.0000
 XYZ=    3.8968    6.4730    2.2348 Q=    0.4100 A=    0.0000 R=    0.0000 C=    0.0000
 XYZ=   -0.1012   -2.9685    8.9497 Q=   -0.8200 A=    0.0000 R=    0.0000 C=    0.0000
 XYZ=    0.2345   -2.8921    8.0108 Q=    0.4100 A=    0.0000 R=    0.0000 C=    0.0000
 XYZ=    0.6234   -3.3344    9.5339 Q=    0.4100 A=    0.0000 R=    0.0000 C=    0.0000
 XYZ=    7.3165   -4.9039    2.4774 Q=   -0.8200 A=    0.0000 R=    0.0000 C=    0.0000
 XYZ=    7.6948   -4.0056    2.2538 Q=    0.4100 A=    0.0000 R=    0.0000 C=    0.0000
 XYZ=    6.3340   -4.8198    2.6435 Q=    0.4100 A=    0.0000 R=    0.0000 C=    0.0000
 XYZ=   -3.9609   -1.5247    7.6189 Q=   -0.8200 A=    0.0000 R=    0.0000 C=    0.0000
 XYZ=   -3.1451   -1.0570    7.9592 Q=    0.4100 A=    0.0000 R=    0.0000 C=    0.0000
 XYZ=   -4.0747   -2.3918    8.1039 Q=    0.4100 A=    0.0000 R=    0.0000 C=    0.0000
 XYZ=    3.4606    0.5273    7.4358 Q=   -0.8200 A=    0.0000 R=    0.0000 C=    0.0000
 XYZ=    3.4901    0.7410    8.4122 Q=    0.4100 A=    0.0000 R=    0.0000 C=    0.0000
 XYZ=    4.3810    0.5978    7.0513 Q=    0.4100 A=    0.0000 R=    0.0000 C=    0.0000
 XYZ=   -8.8245   -4.2921    1.6845 Q=   -0.8200 A=    0.0000 R=    0.0000 C=    0.0000
 XYZ=   -9.5715   -4.3400    1.0212 Q=    0.4100 A=    0.0000 R=    0.0000 C=    0.0000
 XYZ=   -8.1453   -3.6271    1.3741 Q=    0.4100 A=    0.0000 R=    0.0000 C=    0.0000
 XYZ=   -1.9389    8.3526   -2.2511 Q=   -0.8200 A=    0.0000 R=    0.0000 C=    0.0000
 XYZ=   -2.0496    7.5270   -1.6978 Q=    0.4100 A=    0.0000 R=    0.0000 C=    0.0000
 XYZ=   -1.8604    9.1483   -1.6505 Q=    0.4100 A=    0.0000 R=    0.0000 C=    0.0000
 XYZ=    9.8037    0.9098   -3.0989 Q=   -0.8200 A=    0.0000 R=    0.0000 C=    0.0000
 XYZ=    9.0351    0.9220   -2.4592 Q=    0.4100 A=    0.0000 R=    0.0000 C=    0.0000
 XYZ=   10.6600    0.8241   -2.5894 Q=    0.4100 A=    0.0000 R=    0.0000 C=    0.0000
 XYZ=    0.9532    3.9802    8.0487 Q=   -0.8200 A=    0.0000 R=    0.0000 C=    0.0000
 XYZ=    1.2795    3.2552    7.4421 Q=    0.4100 A=    0.0000 R=    0.0000 C=    0.0000
 XYZ=    0.0546    3.7324    8.4109 Q=    0.4100 A=    0.0000 R=    0.0000 C=    0.0000
 XYZ=    8.4691    5.1364   -1.0656 Q=   -0.8200 A=    0.0000 R=    0.0000 C=    0.0000
 XYZ=    8.0695    4.2222   -0.9981 Q=    0.4100 A=    0.0000 R=    0.0000 C=    0.0000
 XYZ=    9.0142    5.3230   -0.2482 Q=    0.4100 A=    0.0000 R=    0.0000 C=    0.0000
 XYZ=   -0.5599   -6.8090    4.9997 Q=   -0.8200 A=    0.0000 R=    0.0000 C=    0.0000
 XYZ=   -1.3298   -6.4852    5.5496 Q=    0.4100 A=    0.0000 R=    0.0000 C=    0.0000
 XYZ=   -0.8915   -7.1064    4.1043 Q=    0.4100 A=    0.0000 R=    0.0000 C=    0.0000
 XYZ=   -2.2362   -5.5282    6.2152 Q=   -0.8200 A=    0.0000 R=    0.0000 C=    0.0000
 XYZ=   -1.9964   -4.9666    7.0071 Q=    0.4100 A=    0.0000 R=    0.0000 C=    0.0000
 XYZ=   -3.1024   -5.9969    6.3889 Q=    0.4100 A=    0.0000 R=    0.0000 C=    0.0000
 XYZ=   -1.4726    6.8802   -5.8406 Q=   -0.8200 A=    0.0000 R=    0.0000 C=    0.0000
 XYZ=   -0.5646    6.8241   -5.4254 Q=    0.4100 A=    0.0000 R=    0.0000 C=    0.0000
 XYZ=   -2.0667    7.4447   -5.2676 Q=    0.4100 A=    0.0000 R=    0.0000 C=    0.0000
 XYZ=    9.5165    0.3228    0.4717 Q=   -0.8200 A=    0.0000 R=    0.0000 C=    0.0000
 XYZ=    9.7853   -0.5327    0.9142 Q=    0.4100 A=    0.0000 R=    0.0000 C=    0.0000
 XYZ=    9.0298    0.8991    1.1282 Q=    0.4100 A=    0.0000 R=    0.0000 C=    0.0000
 XYZ=   -9.9263    1.6428   -1.1022 Q=   -0.8200 A=    0.0000 R=    0.0000 C=    0.0000
 XYZ=  -10.0845    2.6243   -1.2104 Q=    0.4100 A=    0.0000 R=    0.0000 C=    0.0000
 XYZ=   -8.9815    1.4283   -1.3503 Q=    0.4100 A=    0.0000 R=    0.0000 C=    0.0000
 XYZ=    3.7026   -0.7078   -9.8095 Q=   -0.8200 A=    0.0000 R=    0.0000 C=    0.0000
 XYZ=    3.7885   -0.4907   -8.8371 Q=    0.4100 A=    0.0000 R=    0.0000 C=    0.0000
 XYZ=    4.5967   -0.9704  -10.1725 Q=    0.4100 A=    0.0000 R=    0.0000 C=    0.0000
 XYZ=    3.6735    3.8245    6.1042 Q=   -0.8200 A=    0.0000 R=    0.0000 C=    0.0000
 XYZ=    4.2202    3.7630    6.9392 Q=    0.4100 A=    0.0000 R=    0.0000 C=    0.0000
 XYZ=    3.7425    4.7485    5.7281 Q=    0.4100 A=    0.0000 R=    0.0000 C=    0.0000
 XYZ=    1.9636    7.2520    3.9597 Q=   -0.8200 A=    0.0000 R=    0.0000 C=    0.0000
 XYZ=    1.4359    8.0510    3.6714 Q=    0.4100 A=    0.0000 R=    0.0000 C=    0.0000
 XYZ=    2.3255    6.7831    3.1540 Q=    0.4100 A=    0.0000 R=    0.0000 C=    0.0000
 XYZ=    2.5496    6.8303   -5.6729 Q=   -0.8200 A=    0.0000 R=    0.0000 C=    0.0000
 XYZ=    3.5454    6.8402   -5.5822 Q=    0.4100 A=    0.0000 R=    0.0000 C=    0.0000
 XYZ=    2.2574    7.6110   -6.2253 Q=    0.4100 A=    0.0000 R=    0.0000 C=    0.0000
 XYZ=    7.5482    4.3239   -4.7161 Q=   -0.8200 A=    0.0000 R=    0.0000 C=    0.0000
 XYZ=    7.6361    5.2740   -4.4167 Q=    0.4100 A=    0.0000 R=    0.0000 C=    0.0000
 XYZ=    8.3216    3.7925   -4.3702 Q=    0.4100 A=    0.0000 R=    0.0000 C=    0.0000
 XYZ=    5.2682    3.3259   -8.0155 Q=   -0.8200 A=    0.0000 R=    0.0000 C=    0.0000
 XYZ=    5.7010    4.0347   -7.4584 Q=    0.4100 A=    0.0000 R=    0.0000 C=    0.0000
 XYZ=    5.7248    2.4508   -7.8551 Q=    0.4100 A=    0.0000 R=    0.0000 C=    0.0000
 XYZ=   -8.7790   -0.6279    4.5702 Q=   -0.8200 A=    0.0000 R=    0.0000 C=    0.0000
 XYZ=   -8.5198   -0.1854    3.7117 Q=    0.4100 A=    0.0000 R=    0.0000 C=    0.0000
 XYZ=   -9.5201   -1.2774    4.3999 Q=    0.4100 A=    0.0000 R=    0.0000 C=    0.0000
 XYZ=  -10.1278    0.8921    1.2484 Q=   -0.8200 A=    0.0000 R=    0.0000 C=    0.0000
 XYZ=  -10.0152    1.1945    0.3019 Q=    0.4100 A=    0.0000 R=    0.0000 C=    0.0000
 XYZ=   -9.2582    0.5355    1.5901 Q=    0.4100 A=    0.0000 R=    0.0000 C=    0.0000
 XYZ=    5.6863    0.7485    6.6653 Q=   -0.8200 A=    0.0000 R=    0.0000 C=    0.0000
 XYZ=    6.3261    1.0289    7.3809 Q=    0.4100 A=    0.0000 R=    0.0000 C=    0.0000
 XYZ=    6.0363   -0.0684    6.2068 Q=    0.4100 A=    0.0000 R=    0.0000 C=    0.0000
 XYZ=    7.6577    5.6849    2.5017 Q=   -0.8200 A=    0.0000 R=    0.0000 C=    0.0000
 XYZ=    8.0039    5.4195    3.4017 Q=    0.4100 A=    0.0000 R=    0.0000 C=    0.0000
 XYZ=    6.8129    5.1858    2.3091 Q=    0.4100 A=    0.0000 R=    0.0000 C=    0.0000
 XYZ=   -7.5458    0.9804    5.6689 Q=   -0.8200 A=    0.0000 R=    0.0000 C=    0.0000
 XYZ=   -8.2273    0.3582    5.2836 Q=    0.4100 A=    0.0000 R=    0.0000 C=    0.0000
 XYZ=   -6.7382    0.4598    5.9462 Q=    0.4100 A=    0.0000 R=    0.0000 C=    0.0000
 XYZ=    8.8881    0.3863   -5.1393 Q=   -0.8200 A=    0.0000 R=    0.0000 C=    0.0000
 XYZ=    9.2937    0.5803   -4.2461 Q=    0.4100 A=    0.0000 R=    0.0000 C=    0.0000
 XYZ=    8.5366   -0.5499   -5.1496 Q=    0.4100 A=    0.0000 R=    0.0000 C=    0.0000
 XYZ=    6.2763    5.0716   -6.5794 Q=   -0.8200 A=    0.0000 R=    0.0000 C=    0.0000
 XYZ=    6.8796    5.6208   -7.1576 Q=    0.4100 A=    0.0000 R=    0.0000 C=    0.0000
 XYZ=    6.8075    4.6622   -5.8377 Q=    0.4100 A=    0.0000 R=    0.0000 C=    0.0000
 XYZ=   -5.8661   -6.6853   -0.0920 Q=   -0.8200 A=    0.0000 R=    0.0000 C=    0.0000
 XYZ=   -6.6278   -6.7955    0.5466 Q=    0.4100 A=    0.0000 R=    0.0000 C=    0.0000
 XYZ=   -5.9687   -7.3321   -0.8478 Q=    0.4100 A=    0.0000 R=    0.0000 C=    0.0000
 XYZ=   -6.6186   -3.2432   -5.5197 Q=   -0.8200 A=    0.0000 R=    0.0000 C=    0.0000
 XYZ=   -6.2365   -2.5542   -6.1356 Q=    0.4100 A=    0.0000 R=    0.0000 C=    0.0000
 XYZ=   -7.4231   -3.6595   -5.9435 Q=    0.4100 A=    0.0000 R=    0.0000 C=    0.0000
 XYZ=    1.8326    8.7114   -1.3442 Q=   -0.8200 A=    0.0000 R=    0.0000 C=    0.0000
 XYZ=    2.6832    8.2014   -1.4723 Q=    0.4100 A=    0.0000 R=    0.0000 C=    0.0000
 XYZ=    1.1409    8.3713   -1.9814 Q=    0.4100 A=    0.0000 R=    0.0000 C=    0.0000
 XYZ=   -2.6490    1.9757    8.8933 Q=   -0.8200 A=    0.0000 R=    0.0000 C=    0.0000
 XYZ=   -2.2203    1.0884    8.7228 Q=    0.4100 A=    0.0000 R=    0.0000 C=    0.0000
 XYZ=   -3.5596    1.8365    9.2825 Q=    0.4100 A=    0.0000 R=    0.0000 C=    0.0000
 XYZ=    6.4402   -2.7597   -7.0825 Q=   -0.8200 A=    0.0000 R=    0.0000 C=    0.0000
 XYZ=    7.2810   -3.1843   -6.7467 Q=    0.4100 A=    0.0000 R=    0.0000 C=    0.0000
 XYZ=    6.1208   -3.2491   -7.8941 Q=    0.4100 A=    0.0000 R=    0.0000 C=    0.0000
 XYZ=    4.9530    6.7265   -5.3315 Q=   -0.8200 A=    0.0000 R=    0.0000 C=    0.0000
 XYZ=    5.4991    7.5447   -5.1516 Q=    0.4100 A=    0.0000 R=    0.0000 C=    0.0000
 XYZ=    5.4832    6.0878   -5.8891 Q=    0.4100 A=    0.0000 R=    0.0000 C=    0.0000
 XYZ=    7.1158   -0.6777   -8.2583 Q=   -0.8200 A=    0.0000 R=    0.0000 C=    0.0000
 XYZ=    6.9049    0.2532   -7.9602 Q=    0.4100 A=    0.0000 R=    0.0000 C=    0.0000
 XYZ=    6.8088   -1.3278   -7.5632 Q=    0.4100 A=    0.0000 R=    0.0000 C=    0.0000
 XYZ=   -6.4321    5.4778    3.3453 Q=   -0.8200 A=    0.0000 R=    0.0000 C=    0.0000
 XYZ=   -7.1567    6.1558    3.2211 Q=    0.4100 A=    0.0000 R=    0.0000 C=    0.0000
 XYZ=   -6.5729    4.9940    4.2091 Q=    0.4100 A=    0.0000 R=    0.0000 C=    0.0000
 XYZ=   -2.9097    8.0907   -4.1773 Q=   -0.8200 A=    0.0000 R=    0.0000 C=    0.0000
 XYZ=   -2.3762    8.2663   -3.3499 Q=    0.4100 A=    0.0000 R=    0.0000 C=    0.0000
 XYZ=   -3.6072    7.4007   -3.9840 Q=    0.4100 A=    0.0000 R=    0.0000 C=    0.0000
 XYZ=   -2.1149    5.8179   -7.8168 Q=   -0.8200 A=    0.0000 R=    0.0000 C=    0.0000
 XYZ=   -1.8424    6.2924   -6.9798 Q=    0.4100 A=    0.0000 R=    0.0000 C=    0.0000
 XYZ=   -2.8003    6.3622   -8.3004 Q=    0.4100 A=    0.0000 R=    0.0000 C=    0.0000
 XYZ=    9.0861    3.1335   -3.6169 Q=   -0.8200 A=    0.0000 R=    0.0000 C=    0.0000
 XYZ=    9.6298    3.8447   -3.1713 Q=    0.4100 A=    0.0000 R=    0.0000 C=    0.0000
 XYZ=    9.4630    2.2352   -3.3911 Q=    0.4100 A=    0.0000 R=    0.0000 C=    0.0000
 XYZ=   -7.6699    4.7360   -3.1896 Q=   -0.8200 A=    0.0000 R=    0.0000 C=    0.0000
 XYZ=   -6.9883    4.6937   -3.9201 Q=    0.4100 A=    0.0000 R=    0.0000 C=    0.0000
 XYZ=   -8.5388    4.3698   -3.5228 Q=    0.4100 A=    0.0000 R=    0.0000 C=    0.0000
 XYZ=   -0.0011    5.4930   -8.8826 Q=   -0.8200 A=    0.0000 R=    0.0000 C=    0.0000
 XYZ=   -0.9444    5.5849   -8.5635 Q=    0.4100 A=    0.0000 R=    0.0000 C=    0.0000
 XYZ=    0.5770    5.1813   -8.1286 Q=    0.4100 A=    0.0000 R=    0.0000 C=    0.0000
 XYZ=    2.5566   -5.6923   -7.3222 Q=   -0.8200 A=    0.0000 R=    0.0000 C=    0.0000
 XYZ=    3.0051   -4.8284   -7.5511 Q=    0.4100 A=    0.0000 R=    0.0000 C=    0.0000
 XYZ=    3.2107   -6.4428   -7.4174 Q=    0.4100 A=    0.0000 R=    0.0000 C=    0.0000
 XYZ=   -2.9494    3.8744   -8.8548 Q=   -0.8200 A=    0.0000 R=    0.0000 C=    0.0000
 XYZ=   -3.7901    3.4798   -8.4839 Q=    0.4100 A=    0.0000 R=    0.0000 C=    0.0000
 XYZ=   -2.7110    4.6967   -8.3381 Q=    0.4100 A=    0.0000 R=    0.0000 C=    0.0000
 XYZ=   -7.1664    4.5974    5.5005 Q=   -0.8200 A=    0.0000 R=    0.0000 C=    0.0000
 XYZ=   -7.1443    4.6307    6.4998 Q=    0.4100 A=    0.0000 R=    0.0000 C=    0.0000
 XYZ=   -6.8108    3.7163    5.1885 Q=    0.4100 A=    0.0000 R=    0.0000 C=    0.0000
 XYZ=   -1.8077   -4.3254    8.1658 Q=   -0.8200 A=    0.0000 R=    0.0000 C=    0.0000
 XYZ=   -1.0107   -3.8848    8.5791 Q=    0.4100 A=    0.0000 R=    0.0000 C=    0.0000
 XYZ=   -2.6354   -3.8280    8.4252 Q=    0.4100 A=    0.0000 R=    0.0000 C=    0.0000
 XYZ=   -5.9622    6.7553   -0.5228 Q=   -0.8200 A=    0.0000 R=    0.0000 C=    0.0000
 XYZ=   -5.5560    7.6684   -0.4864 Q=    0.4100 A=    0.0000 R=    0.0000 C=    0.0000
 XYZ=   -6.9001    6.8211   -0.8634 Q=    0.4100 A=    0.0000 R=    0.0000 C=    0.0000
 XYZ=   -3.2352   -5.6435   -6.3828 Q=   -0.8200 A=    0.0000 R=    0.0000 C=    0.0000
 XYZ=   -3.3984   -6.0208   -7.2944 Q=    0.4100 A=    0.0000 R=    0.0000 C=    0.0000
 XYZ=   -4.1092   -5.5122   -5.9150 Q=    0.4100 A=    0.0000 R=    0.0000 C=    0.0000
 XYZ=   -5.7092   -5.3082   -6.0238 Q=   -0.8200 A=    0.0000 R=    0.0000 C=    0.0000
 XYZ=   -5.8372   -4.3475   -5.7774 Q=    0.4100 A=    0.0000 R=    0.0000 C=    0.0000
 XYZ=   -6.0178   -5.8893   -5.2708 Q=    0.4100 A=    0.0000 R=    0.0000 C=    0.0000
 XYZ=   -6.3007   -6.6012   -4.0398 Q=   -0.8200 A=    0.0000 R=    0.0000 C=    0.0000
 XYZ=   -6.4175   -5.6846   -3.6576 Q=    0.4100 A=    0.0000 R=    0.0000 C=    0.0000
 XYZ=   -7.1952   -7.0372   -4.1396 Q=    0.4100 A=    0.0000 R=    0.0000 C=    0.0000
 XYZ=    3.7357    6.0470    5.1806 Q=   -0.8200 A=    0.0000 R=    0.0000 C=    0.0000
 XYZ=    4.1926    6.4515    5.9729 Q=    0.4100 A=    0.0000 R=    0.0000 C=    0.0000
 XYZ=    2.8929    6.5502    4.9890 Q=    0.4100 A=    0.0000 R=    0.0000 C=    0.0000
 XYZ=   -5.8126   -1.9007   -7.6550 Q=   -0.8200 A=    0.0000 R=    0.0000 C=    0.0000
 XYZ=   -5.5275   -2.4444   -8.4443 Q=    0.4100 A=    0.0000 R=    0.0000 C=    0.0000
 XYZ=   -6.3784   -1.1361   -7.9639 Q=    0.4100 A=    0.0000 R=    0.0000 C=    0.0000
 XYZ=   -7.4552   -4.1935    5.4608 Q=   -0.8200 A=    0.0000 R=    0.0000 C=    0.0000
 XYZ=   -8.2194   -4.3651    4.8390 Q=    0.4100 A=    0.0000 R=    0.0000 C=    0.0000
 XYZ=   -7.2763   -3.2106    5.5055 Q=    0.4100 A=    0.0000 R=    0.0000 C=    0.0000
 XYZ=    7.3257    6.7942   -2.1528 Q=   -0.8200 A=    0.0000 R=    0.0000 C=    0.0000
 XYZ=    7.8372    6.1204   -1.6194 Q=    0.4100 A=    0.0000 R=    0.0000 C=    0.0000
 XYZ=    7.3246    7.6700   -1.6702 Q=    0.4100 A=    0.0000 R=    0.0000 C=    0.0000
 XYZ=   -7.4911   -6.4591    1.4643 Q=   -0.8200 A=    0.0000 R=    0.0000 C=    0.0000
 XYZ=   -7.8880   -5.5675    1.6825 Q=    0.4100 A=    0.0000 R=    0.0000 C=    0.0000
 XYZ=   -7.0308   -6.8258    2.2728 Q=    0.4100 A=    0.0000 R=    0.0000 C=    0.0000
 XYZ=    0.0498   -2.8224   -9.3246 Q=   -0.8200 A=    0.0000 R=    0.0000 C=    0.0000
 XYZ=    0.5875   -2.0734   -9.7119 Q=    0.4100 A=    0.0000 R=    0.0000 C=    0.0000
 XYZ=    0.5901   -3.6638   -9.3411 Q=    0.4100 A=    0.0000 R=    0.0000 C=    0.0000
 XYZ=   -2.1517    0.2238  -10.1520 Q=   -0.8200 A=    0.0000 R=    0.0000 C=    0.0000
 XYZ=   -2.1014   -0.7617  -10.3138 Q=    0.4100 A=    0.0000 R=    0.0000 C=    0.0000
 XYZ=   -3.0176    0.4441   -9.7029 Q=    0.4100 A=    0.0000 R=    0.0000 C=    0.0000
 XYZ=   10.3910   -1.7521    1.5140 Q=   -0.8200 A=    0.0000 R=    0.0000 C=    0.0000
 XYZ=    9.5363   -2.2670    1.5796 Q=    0.4100 A=    0.0000 R=    0.0000 C=    0.0000
 XYZ=   11.1008   -2.3337    1.1165 Q=    0.4100 A=    0.0000 R=    0.0000 C=    0.0000
 XYZ=   10.3275    3.2707    1.4169 Q=   -0.8200 A=    0.0000 R=    0.0000 C=    0.0000
 XYZ=    9.4503    2.8066    1.5400 Q=    0.4100 A=    0.0000 R=    0.0000 C=    0.0000
 XYZ=   10.1745    4.2552    1.3307 Q=    0.4100 A=    0.0000 R=    0.0000 C=    0.0000
 XYZ=   -1.2668    3.7251    8.9872 Q=   -0.8200 A=    0.0000 R=    0.0000 C=    0.0000
 XYZ=   -1.7695    2.8688    8.8685 Q=    0.4100 A=    0.0000 R=    0.0000 C=    0.0000
 XYZ=   -1.1522    3.9117    9.9630 Q=    0.4100 A=    0.0000 R=    0.0000 C=    0.0000
 XYZ=    8.0335   -6.1652    0.4142 Q=   -0.8200 A=    0.0000 R=    0.0000 C=    0.0000
 XYZ=    7.7588   -5.6743    1.2410 Q=    0.4100 A=    0.0000 R=    0.0000 C=    0.0000
 XYZ=    8.0571   -7.1472    0.6020 Q=    0.4100 A=    0.0000 R=    0.0000 C=    0.0000
 XYZ=   -1.9274   -1.9238  -10.4239 Q=   -0.8200 A=    0.0000 R=    0.0000 C=    0.0000
 XYZ=   -1.2968   -2.2722   -9.7303 Q=    0.4100 A=    0.0000 R=    0.0000 C=    0.0000
 XYZ=   -1.6152   -2.2073  -11.3307 Q=    0.4100 A=    0.0000 R=    0.0000 C=    0.0000
 XYZ=    1.8997    2.2816  -10.0369 Q=   -0.8200 A=    0.0000 R=    0.0000 C=    0.0000
 XYZ=    1.6245    3.1800  -10.3793 Q=    0.4100 A=    0.0000 R=    0.0000 C=    0.0000
 XYZ=    1.1318    1.6457  -10.1147 Q=    0.4100 A=    0.0000 R=    0.0000 C=    0.0000
 XYZ=    8.3215    4.4908    5.2079 Q=   -0.8200 A=    0.0000 R=    0.0000 C=    0.0000
 XYZ=    7.5774    4.0218    4.7322 Q=    0.4100 A=    0.0000 R=    0.0000 C=    0.0000
 XYZ=    9.1118    3.8816    5.2730 Q=    0.4100 A=    0.0000 R=    0.0000 C=    0.0000
 XYZ=    8.7537   -3.8353   -3.8472 Q=   -0.8200 A=    0.0000 R=    0.0000 C=    0.0000
 XYZ=    8.5214   -3.7471   -4.8159 Q=    0.4100 A=    0.0000 R=    0.0000 C=    0.0000
 XYZ=    9.4438   -4.5500   -3.7337 Q=    0.4100 A=    0.0000 R=    0.0000 C=    0.0000
 XYZ=   -9.2104    5.7624    1.5359 Q=   -0.8200 A=    0.0000 R=    0.0000 C=    0.0000
 XYZ=   -8.5205    5.0418    1.4671 Q=    0.4100 A=    0.0000 R=    0.0000 C=    0.0000
 XYZ=  -10.1128    5.3493    1.6583 Q=    0.4100 A=    0.0000 R=    0.0000 C=    0.0000
 XYZ=    0.0936    0.6771  -10.5513 Q=   -0.8200 A=    0.0000 R=    0.0000 C=    0.0000
 XYZ=    0.5162   -0.2196  -10.6836 Q=    0.4100 A=    0.0000 R=    0.0000 C=    0.0000
 XYZ=   -0.8775    0.5604  -10.3432 Q=    0.4100 A=    0.0000 R=    0.0000 C=    0.0000
 XYZ=   -1.5573    9.1194    1.3880 Q=   -0.8200 A=    0.0000 R=    0.0000 C=    0.0000
 XYZ=   -1.9539    9.8593    1.9315 Q=    0.4100 A=    0.0000 R=    0.0000 C=    0.0000
 XYZ=   -1.9124    8.2419    1.7103 Q=    0.4100 A=    0.0000 R=    0.0000 C=    0.0000
 XYZ=    2.4716    8.9153    0.9889 Q=   -0.8200 A=    0.0000 R=    0.0000 C=    0.0000
 XYZ=    1.7177    8.9507    1.6450 Q=    0.4100 A=    0.0000 R=    0.0000 C=    0.0000
 XYZ=    2.1033    8.8597    0.0608 Q=    0.4100 A=    0.0000 R=    0.0000 C=    0.0000
 XYZ=   -5.1472    7.5142    4.5396 Q=   -0.8200 A=    0.0000 R=    0.0000 C=    0.0000
 XYZ=   -5.9360    7.8760    5.0364 Q=    0.4100 A=    0.0000 R=    0.0000 C=    0.0000
 XYZ=   -5.3381    6.5767    4.2485 Q=    0.4100 A=    0.0000 R=    0.0000 C=    0.0000
 XYZ=    0.5242    6.4134    7.6870 Q=   -0.8200 A=    0.0000 R=    0.0000 C=    0.0000
 XYZ=    0.8203    6.7264    8.5895 Q=    0.4100 A=    0.0000 R=    0.0000 C=    0.0000
 XYZ=    0.6707    5.4270    7.6117 Q=    0.4100 A=    0.0000 R=    0.0000 C=    0.0000
 XYZ=   -6.7512   -7.2148    3.5052 Q=   -0.8200 A=    0.0000 R=    0.0000 C=    0.0000
 XYZ=   -6.3961   -6.4040    3.9707 Q=    0.4100 A=    0.0000 R=    0.0000 C=    0.0000
 XYZ=   -6.1418   -7.9895    3.6739 Q=    0.4100 A=    0.0000 R=    0.0000 C=    0.0000
 XYZ=   -1.3466   -1.4638   10.2329 Q=   -0.8200 A=    0.0000 R=    0.0000 C=    0.0000
 XYZ=   -0.8451   -2.1826    9.7513 Q=    0.4100 A=    0.0000 R=    0.0000 C=    0.0000
 XYZ=   -2.2409   -1.8121   10.5136 Q=    0.4100 A=    0.0000 R=    0.0000 C=    0.0000
 XYZ=    0.3556   -6.5322   -8.0302 Q=   -0.8200 A=    0.0000 R=    0.0000 C=    0.0000
 XYZ=   -0.2604   -5.7876   -7.7729 Q=    0.4100 A=    0.0000 R=    0.0000 C=    0.0000
 XYZ=    1.2894   -6.3019   -7.7565 Q=    0.4100 A=    0.0000 R=    0.0000 C=    0.0000
 XYZ=   -6.4799    5.1652   -7.2048 Q=   -0.8200 A=    0.0000 R=    0.0000 C=    0.0000
 XYZ=   -6.2847    5.9465   -7.7977 Q=    0.4100 A=    0.0000 R=    0.0000 C=    0.0000
 XYZ=   -5.8557    4.4156   -7.4250 Q=    0.4100 A=    0.0000 R=    0.0000 C=    0.0000
 XYZ=   -5.6522    1.4988   -8.7652 Q=   -0.8200 A=    0.0000 R=    0.0000 C=    0.0000
 XYZ=   -6.1900    0.6861   -8.5412 Q=    0.4100 A=    0.0000 R=    0.0000 C=    0.0000
 XYZ=   -5.5656    1.5779   -9.7583 Q=    0.4100 A=    0.0000 R=    0.0000 C=    0.0000
 XYZ=   -3.1131   -9.2730    3.1303 Q=   -0.8200 A=    0.0000 R=    0.0000 C=    0.0000
 XYZ=   -2.4526   -8.5378    3.2828 Q=    0.4100 A=    0.0000 R=    0.0000 C=    0.0000
 XYZ=   -3.3372   -9.3231    2.1570 Q=    0.4100 A=    0.0000 R=    0.0000 C=    0.0000
 XYZ=    6.5818    7.8017    2.6420 Q=   -0.8200 A=    0.0000 R=    0.0000 C=    0.0000
 XYZ=    5.7009    7.3349    2.7217 Q=    0.4100 A=    0.0000 R=    0.0000 C=    0.0000
 XYZ=    7.2940    7.1343    2.4243 Q=    0.4100 A=    0.0000 R=    0.0000 C=    0.0000
 XYZ=  -10.5436    2.5161    3.1709 Q=   -0.8200 A=    0.0000 R=    0.0000 C=    0.0000
 XYZ=   -9.5903    2.7831    3.0303 Q=    0.4100 A=    0.0000 R=    0.0000 C=    0.0000
 XYZ=  -10.6909    1.5989    2.8006 Q=    0.4100 A=    0.0000 R=    0.0000 C=    0.0000
 XYZ=   -4.4385   -6.3787    6.7764 Q=   -0.8200 A=    0.0000 R=    0.0000 C=    0.0000
 XYZ=   -5.0041   -6.0381    6.0253 Q=    0.4100 A=    0.0000 R=    0.0000 C=    0.0000
 XYZ=   -4.5247   -5.7666    7.5625 Q=    0.4100 A=    0.0000 R=    0.0000 C=    0.0000
 XYZ=   -9.2934   -4.5597    3.9506 Q=   -0.8200 A=    0.0000 R=    0.0000 C=    0.0000
 XYZ=   -8.9419   -4.4680    3.0189 Q=    0.4100 A=    0.0000 R=    0.0000 C=    0.0000
 XYZ=  -10.0238   -5.2426    3.9656 Q=    0.4100 A=    0.0000 R=    0.0000 C=    0.0000
 XYZ=   -3.6468   -3.4079    8.8575 Q=   -0.8200 A=    0.0000 R=    0.0000 C=    0.0000
 XYZ=   -4.3694   -4.0925    8.9534 Q=    0.4100 A=    0.0000 R=    0.0000 C=    0.0000
 XYZ=   -3.6675   -2.7891    9.6428 Q=    0.4100 A=    0.0000 R=    0.0000 C=    0.0000
 XYZ=    1.3378   -1.3613  -10.8141 Q=   -0.8200 A=    0.0000 R=    0.0000 C=    0.0000
 XYZ=    2.1991   -1.1837  -10.3379 Q=    0.4100 A=    0.0000 R=    0.0000 C=    0.0000
 XYZ=    1.4359   -1.1225  -11.7803 Q=    0.4100 A=    0.0000 R=    0.0000 C=    0.0000
 XYZ=   -2.1895   -7.8990   -6.1535 Q=   -0.8200 A=    0.0000 R=    0.0000 C=    0.0000
 XYZ=   -2.5528   -6.9746   -6.0370 Q=    0.4100 A=    0.0000 R=    0.0000 C=    0.0000
 XYZ=   -2.3756   -8.2155   -7.0837 Q=    0.4100 A=    0.0000 R=    0.0000 C=    0.0000
 XYZ=   11.2807    0.9353   -1.0200 Q=   -0.8200 A=    0.0000 R=    0.0000 C=    0.0000
 XYZ=   12.1361    0.6724   -0.5737 Q=    0.4100 A=    0.0000 R=    0.0000 C=    0.0000
 XYZ=   10.5127    0.7393   -0.4103 Q=    0.4100 A=    0.0000 R=    0.0000 C=    0.0000
 XYZ=    0.5181    7.7152    5.7792 Q=   -0.8200 A=    0.0000 R=    0.0000 C=    0.0000
 XYZ=    1.1648    7.4144    5.0783 Q=    0.4100 A=    0.0000 R=    0.0000 C=    0.0000
 XYZ=    0.5565    7.0897    6.5585 Q=    0.4100 A=    0.0000 R=    0.0000 C=    0.0000
 XYZ=   -2.0577    5.7946    8.0945 Q=   -0.8200 A=    0.0000 R=    0.0000 C=    0.0000
 XYZ=   -1.3244    6.2128    7.5582 Q=    0.4100 A=    0.0000 R=    0.0000 C=    0.0000
 XYZ=   -1.8014    4.8587    8.3365 Q=    0.4100 A=    0.0000 R=    0.0000 C=    0.0000
 XYZ=    8.2898    6.5122   -4.1645 Q=   -0.8200 A=    0.0000 R=    0.0000 C=    0.0000
 XYZ=    7.8684    6.8153   -3.3098 Q=    0.4100 A=    0.0000 R=    0.0000 C=    0.0000
 XYZ=    9.2838    6.5968   -4.0943 Q=    0.4100 A=    0.0000 R=    0.0000 C=    0.0000
 XYZ=   -7.9442    6.7513   -1.9219 Q=   -0.8200 A=    0.0000 R=    0.0000 C=    0.0000
 XYZ=   -8.4448    7.4204   -2.4713 Q=    0.4100 A=    0.0000 R=    0.0000 C=    0.0000
 XYZ=   -7.8317    5.9070   -2.4459 Q=    0.4100 A=    0.0000 R=    0.0000 C=    0.0000
 XYZ=    1.5705   -4.6508   -9.3540 Q=   -0.8200 A=    0.0000 R=    0.0000 C=    0.0000
 XYZ=    1.7387   -5.3701   -8.6798 Q=    0.4100 A=    0.0000 R=    0.0000 C=    0.0000
 XYZ=    2.3408   -4.0130   -9.3600 Q=    0.4100 A=    0.0000 R=    0.0000 C=    0.0000
 XYZ=   -5.8971   -8.1284   -1.9363 Q=   -0.8200 A=    0.0000 R=    0.0000 C=    0.0000
 XYZ=   -6.7289   -8.6769   -2.0218 Q=    0.4100 A=    0.0000 R=    0.0000 C=    0.0000
 XYZ=   -5.7891   -7.5575   -2.7502 Q=    0.4100 A=    0.0000 R=    0.0000 C=    0.0000
 XYZ=   -1.7870   -5.2619   -9.7781 Q=   -0.8200 A=    0.0000 R=    0.0000 C=    0.0000
 XYZ=   -2.4082   -4.5978  -10.1941 Q=    0.4100 A=    0.0000 R=    0.0000 C=    0.0000
 XYZ=   -1.5690   -4.9754   -8.8451 Q=    0.4100 A=    0.0000 R=    0.0000 C=    0.0000
 XYZ=    4.8204    8.6839    0.3723 Q=   -0.8200 A=    0.0000 R=    0.0000 C=    0.0000
 XYZ=    3.9605    8.9751    0.7916 Q=    0.4100 A=    0.0000 R=    0.0000 C=    0.0000
 XYZ=    5.5835    9.1540    0.8158 Q=    0.4100 A=    0.0000 R=    0.0000 C=    0.0000
 XYZ=   10.2309    4.8693   -2.5488 Q=   -0.8200 A=    0.0000 R=    0.0000 C=    0.0000
 XYZ=    9.4694    5.2175   -2.0020 Q=    0.4100 A=    0.0000 R=    0.0000 C=    0.0000
 XYZ=   10.8117    4.2877   -1.9791 Q=    0.4100 A=    0.0000 R=    0.0000 C=    0.0000
 XYZ=    0.6739    8.9909    2.4567 Q=   -0.8200 A=    0.0000 R=    0.0000 C=    0.0000
 XYZ=    0.4487    9.7775    3.0316 Q=    0.4100 A=    0.0000 R=    0.0000 C=    0.0000
 XYZ=   -0.0407    8.8656    1.7685 Q=    0.4100 A=    0.0000 R=    0.0000 C=    0.0000
 XYZ=    3.2253    0.7188  -11.4283 Q=   -0.8200 A=    0.0000 R=    0.0000 C=    0.0000
 XYZ=    2.7644    1.4970  -11.0018 Q=    0.4100 A=    0.0000 R=    0.0000 C=    0.0000
 XYZ=    3.4335    0.0321  -10.7317 Q=    0.4100 A=    0.0000 R=    0.0000 C=    0.0000
 XYZ=    8.6725   -3.3931   -6.4226 Q=   -0.8200 A=    0.0000 R=    0.0000 C=    0.0000
 XYZ=    9.3194   -2.6305   -6.4234 Q=    0.4100 A=    0.0000 R=    0.0000 C=    0.0000
 XYZ=    8.9616   -4.0761   -7.0934 Q=    0.4100 A=    0.0000 R=    0.0000 C=    0.0000
 XYZ=   10.2092   -3.4991   -1.4268 Q=   -0.8200 A=    0.0000 R=    0.0000 C=    0.0000
 XYZ=   10.1411   -3.3251   -2.4092 Q=    0.4100 A=    0.0000 R=    0.0000 C=    0.0000
 XYZ=   10.0420   -4.4686   -1.2476 Q=    0.4100 A=    0.0000 R=    0.0000 C=    0.0000
 XYZ=   -3.0777   -9.2387    0.5512 Q=   -0.8200 A=    0.0000 R=    0.0000 C=    0.0000
 XYZ=   -2.3523   -9.9270    0.5478 Q=    0.4100 A=    0.0000 R=    0.0000 C=    0.0000
 XYZ=   -3.7723   -9.4833   -0.1255 Q=    0.4100 A=    0.0000 R=    0.0000 C=    0.0000
 XYZ=   -8.5804    2.5084    7.2916 Q=   -0.8200 A=    0.0000 R=    0.0000 C=    0.0000
 XYZ=   -8.1393    1.8624    6.6686 Q=    0.4100 A=    0.0000 R=    0.0000 C=    0.0000
 XYZ=   -8.2492    3.4328    7.1025 Q=    0.4100 A=    0.0000 R=    0.0000 C=    0.0000
 XYZ=    9.9075   -1.4408   -6.4204 Q=   -0.8200 A=    0.0000 R=    0.0000 C=    0.0000
 XYZ=   10.0683   -0.6390   -5.8449 Q=    0.4100 A=    0.0000 R=    0.0000 C=    0.0000
 XYZ=    9.6013   -1.1454   -7.3255 Q=    0.4100 A=    0.0000 R=    0.0000 C=    0.0000
 XYZ=   -1.8858   -6.4960    9.2400 Q=   -0.8200 A=    0.0000 R=    0.0000 C=    0.0000
 XYZ=   -1.9525   -5.5833    8.8369 Q=    0.4100 A=    0.0000 R=    0.0000 C=    0.0000
 XYZ=   -1.2638   -7.0570    8.6936 Q=    0.4100 A=    0.0000 R=    0.0000 C=    0.0000
 XYZ=    5.5721   -3.5420   -9.2098 Q=   -0.8200 A=    0.0000 R=    0.0000 C=    0.0000
 XYZ=    5.9577   -4.3267   -9.6951 Q=    0.4100 A=    0.0000 R=    0.0000 C=    0.0000
 XYZ=    5.8632   -2.6969   -9.6583 Q=    0.4100 A=    0.0000 R=    0.0000 C=    0.0000
 XYZ=    2.1134    4.3880   10.0642 Q=   -0.8200 A=    0.0000 R=    0.0000 C=    0.0000
 XYZ=    3.0831    4.5773    9.9092 Q=    0.4100 A=    0.0000 R=    0.0000 C=    0.0000
 XYZ=    1.6749    4.1610    9.1946 Q=    0.4100 A=    0.0000 R=    0.0000 C=    0.0000
 XYZ=    5.1956    3.6162    7.8650 Q=   -0.8200 A=    0.0000 R=    0.0000 C=    0.0000
 XYZ=    5.9015    4.2115    7.4810 Q=    0.4100 A=    0.0000 R=    0.0000 C=    0.0000
 XYZ=    4.6971    4.1080    8.5789 Q=    0.4100 A=    0.0000 R=    0.0000 C=    0.0000
 XYZ=    9.0046   -6.5050    3.1918 Q=   -0.8200 A=    0.0000 R=    0.0000 C=    0.0000
 XYZ=    8.2417   -5.9192    2.9182 Q=    0.4100 A=    0.0000 R=    0.0000 C=    0.0000
 XYZ=    8.6686   -7.2316    3.7911 Q=    0.4100 A=    0.0000 R=    0.0000 C=    0.0000
 XYZ=    6.0573   -1.4961  -10.3212 Q=   -0.8200 A=    0.0000 R=    0.0000 C=    0.0000
 XYZ=    6.6183   -1.6313  -11.1380 Q=    0.4100 A=    0.0000 R=    0.0000 C=    0.0000
 XYZ=    6.6341   -1.1744   -9.5702 Q=    0.4100 A=    0.0000 R=    0.0000 C=    0.0000
 XYZ=    9.6346    5.4576    0.9917 Q=   -0.8200 A=    0.0000 R=    0.0000 C=    0.0000
 XYZ=    9.0610    5.7070    1.7720 Q=    0.4100 A=    0.0000 R=    0.0000 C=    0.0000
 XYZ=   10.2738    6.2016    0.7967 Q=    0.4100 A=    0.0000 R=    0.0000 C=    0.0000
 XYZ=  -12.0455    1.1299   -1.8328 Q=   -0.8200 A=    0.0000 R=    0.0000 C=    0.0000
 XYZ=  -12.4507    2.0439   -1.8118 Q=    0.4100 A=    0.0000 R=    0.0000 C=    0.0000
 XYZ=  -11.0825    1.1863   -1.5690 Q=    0.4100 A=    0.0000 R=    0.0000 C=    0.0000
 XYZ=    9.8729   -5.8170   -1.1790 Q=   -0.8200 A=    0.0000 R=    0.0000 C=    0.0000
 XYZ=    9.1356   -5.7894   -0.5039 Q=    0.4100 A=    0.0000 R=    0.0000 C=    0.0000
 XYZ=   10.6307   -6.3637   -0.8227 Q=    0.4100 A=    0.0000 R=    0.0000 C=    0.0000
 XYZ=   11.3111    3.4960   -0.7061 Q=   -0.8200 A=    0.0000 R=    0.0000 C=    0.0000
 XYZ=   11.7135    2.5917   -0.8487 Q=    0.4100 A=    0.0000 R=    0.0000 C=    0.0000
 XYZ=   10.6787    3.4611    0.0678 Q=    0.4100 A=    0.0000 R=    0.0000 C=    0.0000
 XYZ=    4.0211    1.0136    9.6954 Q=   -0.8200 A=    0.0000 R=    0.0000 C=    0.0000
 XYZ=    4.9757    1.2937    9.5939 Q=    0.4100 A=    0.0000 R=    0.0000 C=    0.0000
 XYZ=    3.6355    1.4354   10.5160 Q=    0.4100 A=    0.0000 R=    0.0000 C=    0.0000
 XYZ=  -12.2230   -0.3150    1.7496 Q=   -0.8200 A=    0.0000 R=    0.0000 C=    0.0000
 XYZ=  -11.3607   -0.0021    1.3514 Q=    0.4100 A=    0.0000 R=    0.0000 C=    0.0000
 XYZ=  -12.0989   -1.2281    2.1380 Q=    0.4100 A=    0.0000 R=    0.0000 C=    0.0000
 XYZ=    9.4634   -1.0496   -8.5734 Q=   -0.8200 A=    0.0000 R=    0.0000 C=    0.0000
 XYZ=    8.4739   -0.9845   -8.4446 Q=    0.4100 A=    0.0000 R=    0.0000 C=    0.0000
 XYZ=    9.8061   -0.1937   -8.9607 Q=    0.4100 A=    0.0000 R=    0.0000 C=    0.0000
 XYZ=   -9.7362    5.7629   -0.6971 Q=   -0.8200 A=    0.0000 R=    0.0000 C=    0.0000
 XYZ=   -9.0792    6.3526   -1.1669 Q=    0.4100 A=    0.0000 R=    0.0000 C=    0.0000
 XYZ=   -9.4816    5.6817    0.2666 Q=    0.4100 A=    0.0000 R=    0.0000 C=    0.0000
 XYZ=   -3.2703    4.1638  -11.2000 Q=   -0.8200 A=    0.0000 R=    0.0000 C=    0.0000
 XYZ=   -3.0921    4.2635  -10.2211 Q=    0.4100 A=    0.0000 R=    0.0000 C=    0.0000
 XYZ=   -3.4421    3.2016  -11.4112 Q=    0.4100 A=    0.0000 R=    0.0000 C=    0.0000
 XYZ=   -1.7590   -9.2607   -4.3833 Q=   -0.8200 A=    0.0000 R=    0.0000 C=    0.0000
 XYZ=   -1.0717   -8.9011   -3.7521 Q=    0.4100 A=    0.0000 R=    0.0000 C=    0.0000
 XYZ=   -1.9376   -8.5870   -5.1004 Q=    0.4100 A=    0.0000 R=    0.0000 C=    0.0000
 XYZ=    1.1811    4.4093  -10.8027 Q=   -0.8200 A=    0.0000 R=    0.0000 C=    0.0000
 XYZ=    0.5471    4.8939  -10.2000 Q=    0.4100 A=    0.0000 R=    0.0000 C=    0.0000
 XYZ=    2.0428    4.9139  -10.8550 Q=    0.4100 A=    0.0000 R=    0.0000 C=    0.0000
 XYZ=   -3.5190   -3.4327  -10.7612 Q=   -0.8200 A=    0.0000 R=    0.0000 C=    0.0000
 XYZ=   -3.7448   -3.4257  -11.7353 Q=    0.4100 A=    0.0000 R=    0.0000 C=    0.0000
 XYZ=   -2.8274   -2.7349  -10.5743 Q=    0.4100 A=    0.0000 R=    0.0000 C=    0.0000
 XYZ=    6.2417    1.8893    8.9844 Q=   -0.8200 A=    0.0000 R=    0.0000 C=    0.0000
 XYZ=    5.7727    2.5193    8.3654 Q=    0.4100 A=    0.0000 R=    0.0000 C=    0.0000
 XYZ=    7.0926    2.3069    9.3032 Q=    0.4100 A=    0.0000 R=    0.0000 C=    0.0000
 XYZ=  -10.4922   -4.4153   -0.0281 Q=   -0.8200 A=    0.0000 R=    0.0000 C=    0.0000
 XYZ=  -10.7021   -4.3017   -0.9993 Q=    0.4100 A=    0.0000 R=    0.0000 C=    0.0000
 XYZ=  -11.3340   -4.3382    0.5060 Q=    0.4100 A=    0.0000 R=    0.0000 C=    0.0000
 XYZ=    7.2209    9.0383   -1.3767 Q=   -0.8200 A=    0.0000 R=    0.0000 C=    0.0000
 XYZ=    6.2346    9.0377   -1.5420 Q=    0.4100 A=    0.0000 R=    0.0000 C=    0.0000
 XYZ=    7.3984    9.2710   -0.4205 Q=    0.4100 A=    0.0000 R=    0.0000 C=    0.0000
 XYZ=    0.4986   10.8268   -1.4884 Q=   -0.8200 A=    0.0000 R=    0.0000 C=    0.0000
 XYZ=    0.3499   11.1984   -2.4048 Q=    0.4100 A=    0.0000 R=    0.0000 C=    0.0000
 XYZ=    1.1738   10.0905   -1.5329 Q=    0.4100 A=    0.0000 R=    0.0000 C=    0.0000
 XYZ=   -1.6057   10.2498   -0.7617 Q=   -0.8200 A=    0.0000 R=    0.0000 C=    0.0000
 XYZ=   -0.6432   10.3819   -0.9989 Q=    0.4100 A=    0.0000 R=    0.0000 C=    0.0000
 XYZ=   -1.6705    9.7603    0.1079 Q=    0.4100 A=    0.0000 R=    0.0000 C=    0.0000
 XYZ=  -10.5370   -2.6412    4.3780 Q=   -0.8200 A=    0.0000 R=    0.0000 C=    0.0000
 XYZ=   -9.9268   -3.4313    4.3201 Q=    0.4100 A=    0.0000 R=    0.0000 C=    0.0000
 XYZ=  -11.1178   -2.7273    5.1876 Q=    0.4100 A=    0.0000 R=    0.0000 C=    0.0000
 XYZ=   -4.4458   -9.7424   -1.3179 Q=   -0.8200 A=    0.0000 R=    0.0000 C=    0.0000
 XYZ=   -3.9444  -10.0636   -2.1213 Q=    0.4100 A=    0.0000 R=    0.0000 C=    0.0000
 XYZ=   -5.0829   -9.0209   -1.5891 Q=    0.4100 A=    0.0000 R=    0.0000 C=    0.0000
 XYZ=   -3.3430    1.6101  -11.7973 Q=   -0.8200 A=    0.0000 R=    0.0000 C=    0.0000
 XYZ=   -2.9038    0.9406  -11.1982 Q=    0.4100 A=    0.0000 R=    0.0000 C=    0.0000
 XYZ=   -4.3236    1.4202  -11.8469 Q=    0.4100 A=    0.0000 R=    0.0000 C=    0.0000
 XYZ=   -5.8136   -5.6124   -8.2707 Q=   -0.8200 A=    0.0000 R=    0.0000 C=    0.0000
 XYZ=   -5.0027   -6.1297   -8.5444 Q=    0.4100 A=    0.0000 R=    0.0000 C=    0.0000
 XYZ=   -5.8652   -5.5771   -7.2726 Q=    0.4100 A=    0.0000 R=    0.0000 C=    0.0000
 XYZ=   -9.8043    4.0889   -3.9339 Q=   -0.8200 A=    0.0000 R=    0.0000 C=    0.0000
 XYZ=  -10.0460    4.1069   -2.9637 Q=    0.4100 A=    0.0000 R=    0.0000 C=    0.0000
 XYZ=  -10.5936    3.7866   -4.4684 Q=    0.4100 A=    0.0000 R=    0.0000 C=    0.0000
 XYZ=   -9.4102   -7.4851    0.8160 Q=   -0.8200 A=    0.0000 R=    0.0000 C=    0.0000
 XYZ=  -10.0324   -6.7297    0.6107 Q=    0.4100 A=    0.0000 R=    0.0000 C=    0.0000
 XYZ=   -8.5541   -7.1214    1.1833 Q=    0.4100 A=    0.0000 R=    0.0000 C=    0.0000
 XYZ=  -10.5515    3.9169   -1.7035 Q=   -0.8200 A=    0.0000 R=    0.0000 C=    0.0000
 XYZ=  -11.5392    3.7888   -1.7938 Q=    0.4100 A=    0.0000 R=    0.0000 C=    0.0000
 XYZ=  -10.3701    4.7100   -1.1221 Q=    0.4100 A=    0.0000 R=    0.0000 C=    0.0000
 XYZ=    6.8500    5.0794    6.9378 Q=   -0.8200 A=    0.0000 R=    0.0000 C=    0.0000
 XYZ=    7.5272    4.8190    6.2496 Q=    0.4100 A=    0.0000 R=    0.0000 C=    0.0000
 XYZ=    7.2796    5.0901    7.8408 Q=    0.4100 A=    0.0000 R=    0.0000 C=    0.0000
 XYZ=   -5.0516    9.0314   -0.4645 Q=   -0.8200 A=    0.0000 R=    0.0000 C=    0.0000
 XYZ=   -4.5984    9.6955   -1.0590 Q=    0.4100 A=    0.0000 R=    0.0000 C=    0.0000
 XYZ=   -5.6850    9.5077    0.1454 Q=    0.4100 A=    0.0000 R=    0.0000 C=    0.0000
 XYZ=   -7.3643   -0.3548   -8.7773 Q=   -0.8200 A=    0.0000 R=    0.0000 C=    0.0000
 XYZ=   -8.1831    0.1931   -8.9493 Q=    0.4100 A=    0.0000 R=    0.0000 C=    0.0000
 XYZ=   -7.4115   -1.2005   -9.3090 Q=    0.4100 A=    0.0000 R=    0.0000 C=    0.0000
 XYZ=   11.6850   -0.8038    3.3296 Q=   -0.8200 A=    0.0000 R=    0.0000 C=    0.0000
 XYZ=   11.1086   -1.0673    2.5561 Q=    0.4100 A=    0.0000 R=    0.0000 C=    0.0000
 XYZ=   11.3551   -1.2536    4.1596 Q=    0.4100 A=    0.0000 R=    0.0000 C=    0.0000
 XYZ=   -7.2893   -4.4181    7.8745 Q=   -0.8200 A=    0.0000 R=    0.0000 C=    0.0000
 XYZ=   -7.4885   -4.4765    6.8962 Q=    0.4100 A=    0.0000 R=    0.0000 C=    0.0000
 XYZ=   -7.1259   -3.4639    8.1250 Q=    0.4100 A=    0.0000 R=    0.0000 C=    0.0000
 XYZ=   -5.4119   -3.3925   -9.4273 Q=   -0.8200 A=    0.0000 R=    0.0000 C=    0.0000
 XYZ=   -4.5469   -3.4188   -9.9285 Q=    0.4100 A=    0.0000 R=    0.0000 C=    0.0000
 XYZ=   -5.5976   -4.2937   -9.0357 Q=    0.4100 A=    0.0000 R=    0.0000 C=    0.0000
 XYZ=   -3.6590   10.4890   -3.8783 Q=   -0.8200 A=    0.0000 R=    0.0000 C=    0.0000
 XYZ=   -3.8476   10.5938   -2.9018 Q=    0.4100 A=    0.0000 R=    0.0000 C=    0.0000
 XYZ=   -3.4123    9.5390   -4.0700 Q=    0.4100 A=    0.0000 R=    0.0000 C=    0.0000
 XYZ=   -1.0457    2.1128  -12.3865 Q=   -0.8200 A=    0.0000 R=    0.0000 C=    0.0000
 XYZ=   -0.6219    1.6546  -11.6051 Q=    0.4100 A=    0.0000 R=    0.0000 C=    0.0000
 XYZ=   -2.0407    2.0827  -12.2910 Q=    0.4100 A=    0.0000 R=    0.0000 C=    0.0000
 XYZ=   -4.0439    9.3741    3.6041 Q=   -0.8200 A=    0.0000 R=    0.0000 C=    0.0000
 XYZ=   -4.6437    8.6079    3.8347 Q=    0.4100 A=    0.0000 R=    0.0000 C=    0.0000
 XYZ=   -4.5288   10.2350    3.7582 Q=    0.4100 A=    0.0000 R=    0.0000 C=    0.0000
 XYZ=   -0.3440   -0.0235   12.0981 Q=   -0.8200 A=    0.0000 R=    0.0000 C=    0.0000
 XYZ=   -0.5464   -0.5624   11.2805 Q=    0.4100 A=    0.0000 R=    0.0000 C=    0.0000
 XYZ=   -1.1250    0.5631   12.3125 Q=    0.4100 A=    0.0000 R=    0.0000 C=    0.0000
 XYZ=    5.2079    6.8805    6.8424 Q=   -0.8200 A=    0.0000 R=    0.0000 C=    0.0000
 XYZ=    5.6870    7.7402    6.6652 Q=    0.4100 A=    0.0000 R=    0.0000 C=    0.0000
 XYZ=    5.8514    6.1187    6.7668 Q=    0.4100 A=    0.0000 R=    0.0000 C=    0.0000
 XYZ=   -8.8323    6.2865    5.4225 Q=   -0.8200 A=    0.0000 R=    0.0000 C=    0.0000
 XYZ=   -8.1623    5.5444    5.4470 Q=    0.4100 A=    0.0000 R=    0.0000 C=    0.0000
 XYZ=   -8.4473    7.0978    5.8625 Q=    0.4100 A=    0.0000 R=    0.0000 C=    0.0000
 XYZ=   -4.0270    7.5577    7.3954 Q=   -0.8200 A=    0.0000 R=    0.0000 C=    0.0000
 XYZ=   -3.7354    8.3418    6.8474 Q=    0.4100 A=    0.0000 R=    0.0000 C=    0.0000
 XYZ=   -3.2710    6.9081    7.4762 Q=    0.4100 A=    0.0000 R=    0.0000 C=    0.0000
 XYZ=    7.1588    8.0849   -5.9562 Q=   -0.8200 A=    0.0000 R=    0.0000 C=    0.0000
 XYZ=    7.8189    7.6465   -5.3461 Q=    0.4100 A=    0.0000 R=    0.0000 C=    0.0000
 XYZ=    7.1277    7.5900   -6.8245 Q=    0.4100 A=    0.0000 R=    0.0000 C=    0.0000
 XYZ=   -5.2389   -5.0853    8.6570 Q=   -0.8200 A=    0.0000 R=    0.0000 C=    0.0000
 XYZ=   -5.3315   -5.7436    9.4042 Q=    0.4100 A=    0.0000 R=    0.0000 C=    0.0000
 XYZ=   -6.1357   -4.9180    8.2472 Q=    0.4100 A=    0.0000 R=    0.0000 C=    0.0000
 XYZ=   -8.3725    7.1150    3.2350 Q=   -0.8200 A=    0.0000 R=    0.0000 C=    0.0000
 XYZ=   -8.8026    7.0022    4.1308 Q=    0.4100 A=    0.0000 R=    0.0000 C=    0.0000
 XYZ=   -8.9031    6.6212    2.5460 Q=    0.4100 A=    0.0000 R=    0.0000 C=    0.0000
 XYZ=    1.2996   -3.9619   10.5723 Q=   -0.8200 A=    0.0000 R=    0.0000 C=    0.0000
 XYZ=    2.1014   -4.5590   10.5427 Q=    0.4100 A=    0.0000 R=    0.0000 C=    0.0000
 XYZ=    0.9579   -3.9090   11.5106 Q=    0.4100 A=    0.0000 R=    0.0000 C=    0.0000
 XYZ=   11.7806   -3.0615    0.3362 Q=   -0.8200 A=    0.0000 R=    0.0000 C=    0.0000
 XYZ=   11.3164   -3.2155   -0.5361 Q=    0.4100 A=    0.0000 R=    0.0000 C=    0.0000
 XYZ=   12.1984   -3.9154    0.6467 Q=    0.4100 A=    0.0000 R=    0.0000 C=    0.0000
 XYZ=  -11.1374    4.7126    2.4207 Q=   -0.8200 A=    0.0000 R=    0.0000 C=    0.0000
 XYZ=  -12.1036    4.8036    2.1797 Q=    0.4100 A=    0.0000 R=    0.0000 C=    0.0000
 XYZ=  -10.9361    3.7569    2.6359 Q=    0.4100 A=    0.0000 R=    0.0000 C=    0.0000
 XYZ=   -5.4147   -9.0125    4.1118 Q=   -0.8200 A=    0.0000 R=    0.0000 C=    0.0000
 XYZ=   -5.9671   -9.8430    4.1832 Q=    0.4100 A=    0.0000 R=    0.0000 C=    0.0000
 XYZ=   -4.4949   -9.2499    3.7992 Q=    0.4100 A=    0.0000 R=    0.0000 C=    0.0000
 XYZ=   -0.7240    9.7171    5.6218 Q=   -0.8200 A=    0.0000 R=    0.0000 C=    0.0000
 XYZ=   -0.1934    8.8695    5.6222 Q=    0.4100 A=    0.0000 R=    0.0000 C=    0.0000
 XYZ=   -1.6387    9.5379    5.9840 Q=    0.4100 A=    0.0000 R=    0.0000 C=    0.0000
 XYZ=   -8.7710   -7.8828    4.4077 Q=   -0.8200 A=    0.0000 R=    0.0000 C=    0.0000
 XYZ=   -8.3881   -8.6425    4.9334 Q=    0.4100 A=    0.0000 R=    0.0000 C=    0.0000
 XYZ=   -8.0280   -7.3484    4.0048 Q=    0.4100 A=    0.0000 R=    0.0000 C=    0.0000
 XYZ=   10.3934   -5.4442   -3.4789 Q=   -0.8200 A=    0.0000 R=    0.0000 C=    0.0000
 XYZ=   10.0305   -5.5655   -2.5550 Q=    0.4100 A=    0.0000 R=    0.0000 C=    0.0000
 XYZ=   11.1313   -6.1005   -3.6359 Q=    0.4100 A=    0.0000 R=    0.0000 C=    0.0000
 XYZ=    9.7888   -2.7764    6.9948 Q=   -0.8200 A=    0.0000 R=    0.0000 C=    0.0000
 XYZ=    8.7892   -2.7485    6.9853 Q=    0.4100 A=    0.0000 R=    0.0000 C=    0.0000
 XYZ=   10.0974   -3.4278    7.6881 Q=    0.4100 A=    0.0000 R=    0.0000 C=    0.0000
 XYZ=    7.5825    6.6063   -7.7796 Q=   -0.8200 A=    0.0000 R=    0.0000 C=    0.0000
 XYZ=    8.5561    6.7655   -7.6155 Q=    0.4100 A=    0.0000 R=    0.0000 C=    0.0000
 XYZ=    7.3063    7.0702   -8.6214 Q=    0.4100 A=    0.0000 R=    0.0000 C=    0.0000
 XYZ=   -1.1445  -10.5885    0.6532 Q=   -0.8200 A=    0.0000 R=    0.0000 C=    0.0000
 XYZ=   -1.6587  -11.3736    0.3079 Q=    0.4100 A=    0.0000 R=    0.0000 C=    0.0000
 XYZ=   -0.2798  -10.9027    1.0451 Q=    0.4100 A=    0.0000 R=    0.0000 C=    0.0000
 XYZ=   -3.5332    6.8375   -9.3489 Q=   -0.8200 A=    0.0000 R=    0.0000 C=    0.0000
 XYZ=   -3.2775    7.5228  -10.0309 Q=    0.4100 A=    0.0000 R=    0.0000 C=    0.0000
 XYZ=   -4.5292    6.8061   -9.2653 Q=    0.4100 A=    0.0000 R=    0.0000 C=    0.0000
 XYZ=   -6.0091   -8.3206    6.3029 Q=   -0.8200 A=    0.0000 R=    0.0000 C=    0.0000
 XYZ=   -5.6611   -8.6143    5.4126 Q=    0.4100 A=    0.0000 R=    0.0000 C=    0.0000
 XYZ=   -5.4473   -7.5691    6.6489 Q=    0.4100 A=    0.0000 R=    0.0000 C=    0.0000
 XYZ=   -7.3399   -2.1993  -10.1099 Q=   -0.8200 A=    0.0000 R=    0.0000 C=    0.0000
 XYZ=   -6.5652   -2.6446   -9.6608 Q=    0.4100 A=    0.0000 R=    0.0000 C=    0.0000
 XYZ=   -7.9444   -2.8946  -10.4986 Q=    0.4100 A=    0.0000 R=    0.0000 C=    0.0000
 XYZ=   -3.6873   -6.5445   -8.7926 Q=   -0.8200 A=    0.0000 R=    0.0000 C=    0.0000
 XYZ=   -2.9878   -6.1573   -9.3932 Q=    0.4100 A=    0.0000 R=    0.0000 C=    0.0000
 XYZ=   -3.4712   -7.5024   -8.6036 Q=    0.4100 A=    0.0000 R=    0.0000 C=    0.0000
 XYZ=   -0.7782    7.2926  -10.7565 Q=   -0.8200 A=    0.0000 R=    0.0000 C=    0.0000
 XYZ=   -1.2483    6.6164  -11.3237 Q=    0.4100 A=    0.0000 R=    0.0000 C=    0.0000
 XYZ=   -0.4583    6.8572   -9.9150 Q=    0.4100 A=    0.0000 R=    0.0000 C=    0.0000
 XYZ=  -12.1750   -2.4924    2.7557 Q=   -0.8200 A=    0.0000 R=    0.0000 C=    0.0000
 XYZ=  -11.4410   -2.5613    3.4314 Q=    0.4100 A=    0.0000 R=    0.0000 C=    0.0000
 XYZ=  -12.1399   -3.2826    2.1438 Q=    0.4100 A=    0.0000 R=    0.0000 C=    0.0000
 XYZ=   -3.4303   -2.2326   11.0564 Q=   -0.8200 A=    0.0000 R=    0.0000 C=    0.0000
 XYZ=   -3.2010   -3.1048   11.4885 Q=    0.4100 A=    0.0000 R=    0.0000 C=    0.0000
 XYZ=   -3.6444   -1.5571   11.7620 Q=    0.4100 A=    0.0000 R=    0.0000 C=    0.0000
 XYZ=    7.0577    9.4937    1.0006 Q=   -0.8200 A=    0.0000 R=    0.0000 C=    0.0000
 XYZ=    7.5060   10.3318    1.3112 Q=    0.4100 A=    0.0000 R=    0.0000 C=    0.0000
 XYZ=    7.0667    8.8179    1.7377 Q=    0.4100 A=    0.0000 R=    0.0000 C=    0.0000
 XYZ=    8.9285    6.8691    5.4735 Q=   -0.8200 A=    0.0000 R=    0.0000 C=    0.0000
 XYZ=    8.5531    5.9964    5.1610 Q=    0.4100 A=    0.0000 R=    0.0000 C=    0.0000
 XYZ=    8.8366    6.9347    6.4671 Q=    0.4100 A=    0.0000 R=    0.0000 C=    0.0000
 XYZ=    0.1881   -5.4052  -11.0342 Q=   -0.8200 A=    0.0000 R=    0.0000 C=    0.0000
 XYZ=   -0.6882   -5.3632  -10.5542 Q=    0.4100 A=    0.0000 R=    0.0000 C=    0.0000
 XYZ=    0.9253   -5.1609  -10.4041 Q=    0.4100 A=    0.0000 R=    0.0000 C=    0.0000
 XYZ=   -8.8062    5.4556   -7.7515 Q=   -0.8200 A=    0.0000 R=    0.0000 C=    0.0000
 XYZ=   -8.8231    6.0737   -8.5375 Q=    0.4100 A=    0.0000 R=    0.0000 C=    0.0000
 XYZ=   -7.8684    5.3703   -7.4148 Q=    0.4100 A=    0.0000 R=    0.0000 C=    0.0000
 XYZ=   -8.5879   -4.2518   -6.6622 Q=   -0.8200 A=    0.0000 R=    0.0000 C=    0.0000
 XYZ=   -9.4270   -3.8250   -6.9995 Q=    0.4100 A=    0.0000 R=    0.0000 C=    0.0000
 XYZ=   -8.8201   -4.9750   -6.0116 Q=    0.4100 A=    0.0000 R=    0.0000 C=    0.0000
 XYZ=   -3.7518   10.7485   -1.5724 Q=   -0.8200 A=    0.0000 R=    0.0000 C=    0.0000
 XYZ=   -4.1705   11.4445   -0.9889 Q=    0.4100 A=    0.0000 R=    0.0000 C=    0.0000
 XYZ=   -2.8039   10.6024   -1.2891 Q=    0.4100 A=    0.0000 R=    0.0000 C=    0.0000
 XYZ=   -7.2513    4.7560    7.6800 Q=   -0.8200 A=    0.0000 R=    0.0000 C=    0.0000
 XYZ=   -7.6138    4.3685    8.5276 Q=    0.4100 A=    0.0000 R=    0.0000 C=    0.0000
 XYZ=   -6.8469    5.6509    7.8689 Q=    0.4100 A=    0.0000 R=    0.0000 C=    0.0000
 XYZ=   10.2808    3.1387    5.3092 Q=   -0.8200 A=    0.0000 R=    0.0000 C=    0.0000
 XYZ=   11.1009    3.6572    5.0673 Q=    0.4100 A=    0.0000 R=    0.0000 C=    0.0000
 XYZ=   10.5399    2.2099    5.5745 Q=    0.4100 A=    0.0000 R=    0.0000 C=    0.0000
 XYZ=   10.7671    6.8073   -3.8575 Q=   -0.8200 A=    0.0000 R=    0.0000 C=    0.0000
 XYZ=   11.2323    7.3982   -3.1983 Q=    0.4100 A=    0.0000 R=    0.0000 C=    0.0000
 XYZ=   10.6782    5.8873   -3.4756 Q=    0.4100 A=    0.0000 R=    0.0000 C=    0.0000
 XYZ=   12.5310    3.2044    2.4310 Q=   -0.8200 A=    0.0000 R=    0.0000 C=    0.0000
 XYZ=   12.7660    2.2432    2.5753 Q=    0.4100 A=    0.0000 R=    0.0000 C=    0.0000
 XYZ=   11.5771    3.2742    2.1391 Q=    0.4100 A=    0.0000 R=    0.0000 C=    0.0000
 XYZ=   -7.2828    9.2245    2.6048 Q=   -0.8200 A=    0.0000 R=    0.0000 C=    0.0000
 XYZ=   -7.6844    8.3141    2.7052 Q=    0.4100 A=    0.0000 R=    0.0000 C=    0.0000
 XYZ=   -7.0493    9.5871    3.5071 Q=    0.4100 A=    0.0000 R=    0.0000 C=    0.0000
 XYZ=   -2.9845    6.7324   10.0670 Q=   -0.8200 A=    0.0000 R=    0.0000 C=    0.0000
 XYZ=   -3.1182    7.6910    9.8151 Q=    0.4100 A=    0.0000 R=    0.0000 C=    0.0000
 XYZ=   -2.7355    6.2059    9.2541 Q=    0.4100 A=    0.0000 R=    0.0000 C=    0.0000
 XYZ=    1.7039   -0.4526  -12.8831 Q=   -0.8200 A=    0.0000 R=    0.0000 C=    0.0000
 XYZ=    2.3934    0.0876  -12.4007 Q=    0.4100 A=    0.0000 R=    0.0000 C=    0.0000
 XYZ=    1.9699   -0.5528  -13.8419 Q=    0.4100 A=    0.0000 R=    0.0000 C=    0.0000
 XYZ=    7.5805    8.5936    4.6289 Q=   -0.8200 A=    0.0000 R=    0.0000 C=    0.0000
 XYZ=    8.0467    7.7401    4.8612 Q=    0.4100 A=    0.0000 R=    0.0000 C=    0.0000
 XYZ=    7.1575    8.5075    3.7268 Q=    0.4100 A=    0.0000 R=    0.0000 C=    0.0000
 XYZ=   -0.1094   11.4292   -3.7948 Q=   -0.8200 A=    0.0000 R=    0.0000 C=    0.0000
 XYZ=   -0.8979   11.8437   -4.2492 Q=    0.4100 A=    0.0000 R=    0.0000 C=    0.0000
 XYZ=    0.3267   10.7761   -4.4139 Q=    0.4100 A=    0.0000 R=    0.0000 C=    0.0000
[...]
    39  O    0.000000   0.000000  -0.000154   0.000001  -0.000036   0.000001
    40  H    0.000000   0.000000   0.000000   0.000000   0.000000   0.000000
    41  H    0.000000   0.000000   0.000010   0.000000  -0.000001   0.000000
    42  O    0.000000   0.000000  -0.000003   0.000000  -0.000002   0.000000
    43  H    0.000000   0.000000   0.000000   0.000000   0.000000   0.000000
    44  H    0.000000   0.000000   0.000000   0.000000   0.000000   0.000000
    45  O    0.000002   0.000009  -0.000049   0.000000  -0.000007   0.000000
    46  H    0.000000   0.000000   0.000000   0.000000   0.000000   0.000000
    47  H    0.000000   0.000000  -0.000001   0.000000   0.000000   0.000000
    48  O   -0.000006   0.000044  -0.005649   0.000024  -0.000569   0.000000
    49  H    0.000000  -0.000003   0.000476  -0.000015  -0.000013   0.000000
    50  H    0.000000  -0.000001  -0.000001   0.000000  -0.000006   0.000000
              31         32         33         34         35         36
     1  C    0.000242  -0.000038   0.000564   0.000023  -0.000062  -0.002795
     2  H    0.000000   0.000000  -0.000018   0.000000   0.000000   0.000008
     3  H    0.000000   0.000000  -0.000010   0.000000   0.000000  -0.000002
     4  C   -0.001201   0.000057   0.000632   0.000022  -0.000171   0.002201
     5  H   -0.000001   0.000000   0.000000   0.000000   0.000000   0.000000
     6  C    0.001660   0.000000  -0.000136   0.000001   0.000016  -0.000346
     7  H   -0.000016  -0.000009   0.000000   0.000000   0.000000   0.000000
     8  O   -0.000010  -0.000001   0.000003   0.000000   0.000000   0.000023
     9  O    0.000000  -0.000001   0.000000   0.000000   0.000000  -0.000002
    10  H    0.000000   0.000000   0.000000   0.000000   0.000000   0.000000
    11  H    0.000000   0.000000   0.000000   0.000000   0.000000   0.000000
    12  O    0.000000   0.000000   0.000000   0.000000   0.000000   0.000005
    13  H    0.000000   0.000000   0.000000   0.000000   0.000000   0.000003
    14  H    0.000000   0.000000   0.000000   0.000000   0.000000   0.000000
    15  O    0.000000   0.000000  -0.004167  -0.002156  -0.000077   0.000007
    16  H    0.000000   0.000000   0.006410  -0.000338  -0.000420   0.000004
    17  H    0.000000   0.000000   0.000197   0.000062  -0.000046   0.000001
    18  O    0.000000   0.000000  -0.065471  -0.000138   0.000382  -0.000072
    19  H    0.000000   0.000000   0.001621   0.000001   0.000013   0.000000
    20  H    0.000000   0.000000   0.047741  -0.002895  -0.001201   0.000024
    21  O    0.000000   0.000000   0.000000   0.000000   0.000000   0.000000
    22  H    0.000000   0.000000   0.000000   0.000000   0.000000   0.000000
    23  H    0.000000   0.000000   0.000000   0.000000   0.000000   0.000000
    24  O    0.000000   0.000000  -0.000149   0.000000   0.000005  -0.098247
    25  H    0.000000   0.000000   0.000008   0.000000   0.000000  -0.000133
    26  H    0.000000   0.000000   0.000000   0.000000   0.000000   0.003540
    27  O    0.000002   0.000002   0.000000   0.000000   0.000000   0.000001
    28  H    0.000000   0.000000   0.000000   0.000000   0.000000   0.000000
    29  H    0.000000   0.000000   0.000000   0.000000   0.000000   0.000000
    30  O    0.225450   0.190823   0.000000   0.000000   0.000000   0.000000
    31  H    0.268200  -0.004742   0.000000   0.000000   0.000000   0.000000
    32  H   -0.004742   0.151862   0.000000   0.000000   0.000000   0.000000
    33  O    0.000000   0.000000   8.839157   0.202733   0.212680   0.002077
    34  H    0.000000   0.000000   0.202733   0.160788  -0.010485   0.000015
    35  H    0.000000   0.000000   0.212680  -0.010485   0.196959  -0.000271
    36  O    0.000000   0.000000   0.002077   0.000015  -0.000271   9.019848
    37  H    0.000000   0.000000  -0.000287   0.000000  -0.000005   0.213752
    38  H    0.000000   0.000000   0.000029   0.000000   0.000000   0.162829
    39  O    0.000000   0.000000   0.000000   0.000000   0.000000   0.000000
    40  H    0.000000   0.000000   0.000000   0.000000   0.000000   0.000000
    41  H    0.000000   0.000000   0.000000   0.000000   0.000000   0.000000
    42  O    0.000000   0.000000   0.000002   0.000000   0.000000  -0.000001
    43  H    0.000000   0.000000   0.000000   0.000000   0.000000   0.000000
    44  H    0.000000   0.000000   0.000000   0.000000   0.000000   0.000000
    45  O    0.000000   0.000000   0.000030   0.000000  -0.000001  -0.000776
    46  H    0.000000   0.000000   0.000002   0.000000  -0.000001   0.000001
    47  H    0.000000   0.000000   0.000000   0.000000   0.000000   0.000001
    48  O    0.000000   0.000000   0.000001   0.000000   0.000000  -0.000362
    49  H    0.000000   0.000000   0.000000   0.000000   0.000000   0.000048
    50  H    0.000000   0.000000   0.000000   0.000000   0.000000  -0.000007
              37         38         39         40         41         42
     1  C    0.000102  -0.001160   0.000308  -0.000027   0.000005  -0.000359
     2  H    0.000000  -0.000006   0.000001   0.000000   0.000000  -0.000002
     3  H    0.000000   0.000000   0.000000   0.000000   0.000000   0.000000
     4  C   -0.000124   0.001106  -0.001181  -0.000071   0.000024   0.000858
     5  H    0.000000   0.000000   0.000002   0.000000   0.000000   0.000000
     6  C    0.000002   0.000115   0.001234  -0.000134   0.000212  -0.000920
     7  H    0.000000   0.000000   0.000126  -0.000005   0.000000   0.000000
     8  O    0.000000   0.000006  -0.003584   0.000215  -0.000230   0.000212
     9  O    0.000000   0.000000  -0.098584  -0.000462  -0.001624  -0.003714
    10  H    0.000000   0.000000   0.001448  -0.000015   0.000008   0.000133
    11  H    0.000000   0.000000  -0.014988  -0.000126   0.001615   0.000015
    12  O    0.000000   0.000003   0.000242  -0.000045   0.000224  -0.000485
    13  H    0.000000  -0.000001   0.000028   0.000000  -0.000001  -0.000018
    14  H    0.000000   0.000000   0.001587   0.000007  -0.000015  -0.000006
    15  O    0.000001  -0.000004   0.000000   0.000000   0.000000  -0.000532
    16  H    0.000000   0.000000   0.000000   0.000000   0.000000   0.000007
    17  H    0.000000   0.000000   0.000000   0.000000   0.000000   0.000002
    18  O   -0.000001  -0.000004   0.000000   0.000000   0.000000   0.000000
    19  H    0.000000   0.000000   0.000000   0.000000   0.000000   0.000000
    20  H   -0.000003   0.000000   0.000000   0.000000   0.000000   0.000000
    21  O    0.000000   0.000000  -0.008670  -0.001215  -0.000791  -0.094155
    22  H    0.000000   0.000000   0.001930  -0.000106  -0.000071   0.004122
    23  H    0.000000   0.000000   0.002090  -0.000082  -0.000202  -0.000093
    24  O    0.003080  -0.029479   0.000000   0.000000   0.000000   0.000000
    25  H   -0.000072   0.001697   0.000000   0.000000   0.000000   0.000000
    26  H   -0.000043   0.003506   0.000000   0.000000   0.000000   0.000000
    27  O    0.000000   0.000000  -0.000154   0.000000   0.000010  -0.000003
    28  H    0.000000   0.000000   0.000001   0.000000   0.000000   0.000000
    29  H    0.000000   0.000000  -0.000036   0.000000  -0.000001  -0.000002
    30  O    0.000000   0.000000   0.000001   0.000000   0.000000   0.000000
    31  H    0.000000   0.000000   0.000000   0.000000   0.000000   0.000000
    32  H    0.000000   0.000000   0.000000   0.000000   0.000000   0.000000
    33  O   -0.000287   0.000029   0.000000   0.000000   0.000000   0.000002
    34  H    0.000000   0.000000   0.000000   0.000000   0.000000   0.000000
    35  H   -0.000005   0.000000   0.000000   0.000000   0.000000   0.000000
    36  O    0.213752   0.162829   0.000000   0.000000   0.000000  -0.000001
    37  H    0.148326  -0.005322   0.000000   0.000000   0.000000   0.000000
    38  H   -0.005322   0.240234   0.000000   0.000000   0.000000   0.000000
    39  O    0.000000   0.000000   8.951590   0.195743   0.210581   0.000066
    40  H    0.000000   0.000000   0.195743   0.162271  -0.006911  -0.000007
    41  H    0.000000   0.000000   0.210581  -0.006911   0.188988  -0.000007
    42  O    0.000000   0.000000   0.000066  -0.000007  -0.000007   9.038126
    43  H    0.000000   0.000000   0.000036   0.000001   0.000004   0.124334
    44  H    0.000000   0.000000  -0.000005   0.000000   0.000000   0.203473
    45  O    0.000008   0.000097   0.000006   0.000000   0.000000  -0.003211
    46  H    0.000000  -0.000001   0.000000   0.000000   0.000000   0.000100
    47  H    0.000000   0.000000   0.000000   0.000000   0.000000  -0.000238
    48  O    0.000002   0.000081   0.000009   0.000000  -0.000001  -0.000706
    49  H    0.000000  -0.000010   0.000000   0.000000   0.000000   0.000023
    50  H    0.000000  -0.000015  -0.000001   0.000000   0.000000   0.000342
              43         44         45         46         47         48
     1  C    0.000220   0.000006  -0.000284   0.000009   0.000005  -0.000250
     2  H   -0.000002   0.000000   0.000007  -0.000001   0.000000   0.000000
     3  H    0.000000   0.000000   0.000000   0.000000   0.000000   0.000000
     4  C   -0.000204  -0.000007   0.000429  -0.000012  -0.000002   0.000190
     5  H    0.000000   0.000000   0.000000   0.000000   0.000000   0.000000
     6  C    0.000206  -0.000030  -0.000422   0.000016   0.000001  -0.000033
     7  H    0.000000   0.000000   0.000000   0.000000   0.000000  -0.000002
     8  O   -0.000342   0.000021   0.000031  -0.000003   0.000001  -0.000913
     9  O    0.000477   0.000005  -0.000237   0.000015  -0.000003  -0.000420
    10  H    0.000039   0.000000   0.000002   0.000000   0.000000  -0.000086
    11  H    0.000065   0.000000  -0.000003   0.000000   0.000000  -0.000013
    12  O    0.000032   0.000008  -0.004042   0.000065  -0.000144  -0.121733
    13  H   -0.000007   0.000000  -0.002634   0.000013  -0.000024  -0.013416
    14  H   -0.000117   0.000000   0.000165  -0.000006  -0.000012   0.000997
    15  O    0.000012   0.000065   0.000039  -0.000017   0.000000   0.000000
    16  H    0.000000  -0.000001   0.000003  -0.000001   0.000000   0.000000
    17  H    0.000000   0.000000   0.000000   0.000000   0.000000   0.000000
    18  O    0.000000   0.000000   0.000002  -0.000001   0.000000   0.000000
    19  H    0.000000   0.000000   0.000000   0.000000   0.000000   0.000000
    20  H    0.000000   0.000000   0.000000   0.000000   0.000000   0.000000
    21  O    0.055205   0.001070  -0.000373  -0.000028  -0.000003  -0.000456
    22  H   -0.000355   0.000055   0.000149   0.000000  -0.000006   0.000061
    23  H   -0.002818   0.000080   0.000032   0.000000   0.000000  -0.000004
    24  O    0.000000   0.000000  -0.000315   0.000007   0.000000   0.000409
    25  H    0.000000   0.000000   0.000002   0.000000   0.000000  -0.000006
    26  H    0.000000   0.000000   0.000009   0.000000   0.000000   0.000044
    27  O    0.000000   0.000000  -0.000049   0.000000  -0.000001  -0.005649
    28  H    0.000000   0.000000   0.000000   0.000000   0.000000   0.000024
    29  H    0.000000   0.000000  -0.000007   0.000000   0.000000  -0.000569
    30  O    0.000000   0.000000   0.000000   0.000000   0.000000   0.000000
    31  H    0.000000   0.000000   0.000000   0.000000   0.000000   0.000000
    32  H    0.000000   0.000000   0.000000   0.000000   0.000000   0.000000
    33  O    0.000000   0.000000   0.000030   0.000002   0.000000   0.000001
    34  H    0.000000   0.000000   0.000000   0.000000   0.000000   0.000000
    35  H    0.000000   0.000000  -0.000001  -0.000001   0.000000   0.000000
    36  O    0.000000   0.000000  -0.000776   0.000001   0.000001  -0.000362
    37  H    0.000000   0.000000   0.000008   0.000000   0.000000   0.000002
    38  H    0.000000   0.000000   0.000097  -0.000001   0.000000   0.000081
    39  O    0.000036  -0.000005   0.000006   0.000000   0.000000   0.000009
    40  H    0.000001   0.000000   0.000000   0.000000   0.000000   0.000000
    41  H    0.000004   0.000000   0.000000   0.000000   0.000000  -0.000001
    42  O    0.124334   0.203473  -0.003211   0.000100  -0.000238  -0.000706
    43  H    0.198347  -0.001336  -0.000699   0.000019   0.000000   0.000059
    44  H   -0.001336   0.197489   0.000568  -0.000026  -0.000008  -0.000006
    45  O   -0.000699   0.000568   8.757282   0.206260   0.233362  -0.058584
    46  H    0.000019  -0.000026   0.206260   0.163458  -0.004386   0.001563
    47  H    0.000000  -0.000008   0.233362  -0.004386   0.171599   0.001627
    48  O    0.000059  -0.000006  -0.058584   0.001563   0.001627   9.143721
    49  H    0.000000   0.000000   0.001341  -0.000016   0.000004   0.192946
    50  H   -0.000009   0.000000   0.036833   0.000508  -0.003386   0.142964
              49         50
     1  C   -0.000004  -0.000002
     2  H    0.000000   0.000000
     3  H    0.000000   0.000000
     4  C   -0.000005   0.000003
     5  H    0.000000   0.000000
     6  C   -0.000054   0.000033
     7  H    0.000000   0.000000
     8  O   -0.000006   0.000182
     9  O    0.000006  -0.000094
    10  H    0.000000  -0.000001
    11  H    0.000000  -0.000001
    12  O    0.002039  -0.000417
    13  H    0.000312   0.000910
    14  H    0.000045  -0.000390
    15  O    0.000000   0.000000
    16  H    0.000000   0.000000
    17  H    0.000000   0.000000
    18  O    0.000000   0.000000
    19  H    0.000000   0.000000
    20  H    0.000000   0.000000
    21  O   -0.000011  -0.000073
    22  H    0.000000   0.000013
    23  H    0.000000   0.000000
    24  O    0.000006   0.000099
    25  H    0.000000   0.000000
    26  H   -0.000003  -0.000001
    27  O    0.000476  -0.000001
    28  H   -0.000015   0.000000
    29  H   -0.000013  -0.000006
    30  O    0.000000   0.000000
    31  H    0.000000   0.000000
    32  H    0.000000   0.000000
    33  O    0.000000   0.000000
    34  H    0.000000   0.000000
    35  H    0.000000   0.000000
    36  O    0.000048  -0.000007
    37  H    0.000000   0.000000
    38  H   -0.000010  -0.000015
    39  O    0.000000  -0.000001
    40  H    0.000000   0.000000
    41  H    0.000000   0.000000
    42  O    0.000023   0.000342
    43  H    0.000000  -0.000009
    44  H    0.000000   0.000000
    45  O    0.001341   0.036833
    46  H   -0.000016   0.000508
    47  H    0.000004  -0.003386
    48  O    0.192946   0.142964
    49  H    0.175302  -0.001694
    50  H   -0.001694   0.198945
 Mulliken charges:
               1
     1  C   -0.416602
     2  H    0.269175
     3  H    0.231316
     4  C   -0.154965
     5  H    0.229464
     6  C    0.099245
     7  H    0.207999
     8  O   -0.354056
     9  O   -1.313886
    10  H    0.583328
    11  H    0.638417
    12  O   -1.296274
    13  H    0.662622
    14  H    0.625294
    15  O   -1.225495
    16  H    0.603337
    17  H    0.580455
    18  O   -1.162071
    19  H    0.621789
    20  H    0.566209
    21  O   -1.238967
    22  H    0.650503
    23  H    0.590559
    24  O   -1.076626
    25  H    0.611246
    26  H    0.504222
    27  O   -1.281205
    28  H    0.604983
    29  H    0.642770
    30  O   -1.171675
    31  H    0.510416
    32  H    0.662048
    33  O   -1.243650
    34  H    0.652368
    35  H    0.602684
    36  O   -1.301372
    37  H    0.640585
    38  H    0.626297
    39  O   -1.239825
    40  H    0.650972
    41  H    0.608182
    42  O   -1.267354
    43  H    0.626833
    44  H    0.598581
    45  O   -1.165016
    46  H    0.632464
    47  H    0.601612
    48  O   -1.281490
    49  H    0.629282
    50  H    0.625267
 Sum of Mulliken charges =   0.00000
 Mulliken charges with hydrogens summed into heavy atoms:
               1
     1  C    0.083889
     4  C    0.074499
     6  C    0.307244
     8  O   -0.354056
     9  O   -0.092141
    12  O   -0.008358
    15  O   -0.041702
    18  O    0.025928
    21  O    0.002096
    24  O    0.038842
    27  O   -0.033453
    30  O    0.000789
    33  O    0.011403
    36  O   -0.034490
    39  O    0.019329
    42  O   -0.041939
    45  O    0.069061
    48  O   -0.026942
 Electronic spatial extent (au):  <R**2>=          11998.1478
 Charge=              0.0000 electrons
 Dipole moment (field-independent basis, Debye):
    X=              8.0238    Y=              5.6864    Z=             -3.2291  Tot=             10.3510
 Quadrupole moment (field-independent basis, Debye-Ang):
   XX=           -100.2508   YY=            -99.4692   ZZ=           -122.6183
   XY=             56.6304   XZ=             30.5907   YZ=             15.7753
 Traceless Quadrupole moment (field-independent basis, Debye-Ang):
   XX=              7.1953   YY=              7.9769   ZZ=            -15.1722
   XY=             56.6304   XZ=             30.5907   YZ=             15.7753
 Octapole moment (field-independent basis, Debye-Ang**2):
  XXX=            643.0914  YYY=            -72.9775  ZZZ=            -20.8457  XYY=            166.0967
  XXY=           -126.8868  XXZ=            -35.8726  XZZ=           -196.6664  YZZ=             -5.1524
  YYZ=              0.0527  XYZ=           -118.6494
 Hexadecapole moment (field-independent basis, Debye-Ang**3):
 XXXX=          -5776.8154 YYYY=          -3943.4032 ZZZZ=          -2697.5761 XXXY=           2260.5848
 XXXZ=            679.6241 YYYX=           1446.6236 YYYZ=            355.4842 ZZZX=            -56.4353
 ZZZY=            153.0094 XXYY=          -2377.0933 XXZZ=          -1969.5779 YYZZ=           -797.2570
 XXYZ=            245.8011 YYXZ=            -35.5114 ZZXY=            360.1342
 N-N= 1.087704608410D+03 E-N=-6.144638524909D+03  KE= 1.249779284061D+03
 Leave Link  601 at Fri Sep 14 20:37:24 2018, MaxMem=    33554432 cpu:         2.6
 (Enter /usr/local/pacerepov1/gaussian/G09D01LINDA/g09/l9999.exe)

 Test job not archived.
 1\1\GINC-RICH133-C38-30-R\SP\RLC-wPBE TD-FC\6-31+G(d)\C3H32O15\ROOT\14
 -Sep-2018\0\\#p td=(nstates=15)/6-31+g(d) lc-wpbe charge\\Acroleina in
  Water\\0,1\C,0,0.485154,0.480443,-1.430142\H,0,1.461403,0.187773,-1.0
 55732\H,0,0.429244,0.878853,-2.437062\C,0,-0.605127,0.346563,-0.658432
 \H,0,-1.591686,0.632893,-1.012412\C,0,-0.508516,-0.199107,0.712798\H,0
 ,-1.458487,-0.272107,1.272438\O,0,0.544883,-0.561317,1.236519\O,0,0.95
 6071,-1.891569,2.684866\H,0,0.457411,-1.138509,2.255576\H,0,0.310121,-
 2.600619,2.967666\O,0,2.133312,-0.288809,4.138926\H,0,3.042051,0.05427
 1,3.901096\H,0,1.835771,-0.949749,3.449966\O,0,4.510021,-1.264749,-3.5
 35744\H,0,5.268941,-0.828809,-3.051944\H,0,4.014691,-0.577409,-4.06703
 4\O,0,3.460732,0.407361,-4.768954\H,0,3.039681,0.814611,-5.579464\H,0,
 4.152571,1.030491,-4.404094\O,0,2.481681,-3.550109,1.957306\H,0,1.9278
 01,-2.794829,2.307806\H,0,2.666741,-4.198399,2.695886\O,0,2.674091,3.4
 41851,0.740046\H,0,2.238801,4.207701,0.266696\H,0,2.174922,3.244501,1.
 583776\O,0,0.476501,0.984521,5.143356\H,0,1.037861,1.611491,5.683546\H
 ,0,1.069621,0.366311,4.627576\O,0,-4.805949,1.607341,3.155726\H,0,-4.1
 78389,2.027321,2.500106\H,0,-4.282649,1.201941,3.905296\O,0,5.248312,1
 .723331,-3.507584\H,0,5.915061,1.814521,-4.247294\H,0,5.588252,1.06993
 1,-2.831184\O,0,4.897562,3.549991,0.117706\H,0,5.006711,3.668261,-0.86
 9264\H,0,3.933151,3.391911,0.329776\O,0,-0.289739,-3.648409,3.592676\H
 ,0,-0.726519,-4.336069,3.012696\H,0,0.170851,-4.100589,4.356476\O,0,4.
 526802,-3.229339,0.846276\H,0,3.670552,-3.177009,1.360236\H,0,4.426271
 ,-3.883959,0.096996\O,0,5.626071,-0.337729,1.842466\H,0,5.697221,-0.58
 1519,0.875226\H,0,5.738371,-1.158759,2.402216\O,0,4.254702,0.307811,3.
 668286\H,0,4.468462,1.235781,3.973606\H,0,4.773692,0.102111,2.838586\\
 Version=EM64L-G09RevD.01\State=1-A\HF=-1758.9893934\RMSD=6.022e-09\PG=
 C01 [X(C3H32O15)]\\@


 THE GREAT THING ABOUT BEING IMPERFECT IS THE JOY IT BRINGS OTHERS.
   -- SIGN OUTSIDE LAKE AGASSIZ JR. HIGH SCHOOL, FARGO, N.D.
 Job cpu time:       0 days  2 hours 41 minutes 32.0 seconds.
 File lengths (MBytes):  RWF=    792 Int=      0 D2E=      0 Chk=     96 Scr=      2
 Normal termination of Gaussian 09 at Fri Sep 14 20:37:28 2018.
