 Entering Gaussian System, Link 0=g09
 Input=Acroleina_water_15_36c.gjf
 Output=Acroleina_water_15_36c.log
 Initial command:
 /usr/local/pacerepov1/gaussian/G09D01LINDA/g09/l1.exe /nv/hp18/holiveira7/scratch/22411888/Gau-12044.inp -scrdir=/nv/hp18/holiveira7/scratch/22411888/
 Entering Link 1 = /usr/local/pacerepov1/gaussian/G09D01LINDA/g09/l1.exe PID=     12047.
  
 Copyright (c) 1988,1990,1992,1993,1995,1998,2003,2009,2013,
            Gaussian, Inc.  All Rights Reserved.
  
 This is part of the Gaussian(R) 09 program.  It is based on
 the Gaussian(R) 03 system (copyright 2003, Gaussian, Inc.),
 the Gaussian(R) 98 system (copyright 1998, Gaussian, Inc.),
 the Gaussian(R) 94 system (copyright 1995, Gaussian, Inc.),
 the Gaussian 92(TM) system (copyright 1992, Gaussian, Inc.),
 the Gaussian 90(TM) system (copyright 1990, Gaussian, Inc.),
 the Gaussian 88(TM) system (copyright 1988, Gaussian, Inc.),
 the Gaussian 86(TM) system (copyright 1986, Carnegie Mellon
 University), and the Gaussian 82(TM) system (copyright 1983,
 Carnegie Mellon University). Gaussian is a federally registered
 trademark of Gaussian, Inc.
  
 This software contains proprietary and confidential information,
 including trade secrets, belonging to Gaussian, Inc.
  
 This software is provided under written license and may be
 used, copied, transmitted, or stored only in accord with that
 written license.
  
 The following legend is applicable only to US Government
 contracts under FAR:
  
                    RESTRICTED RIGHTS LEGEND
  
 Use, reproduction and disclosure by the US Government is
 subject to restrictions as set forth in subparagraphs (a)
 and (c) of the Commercial Computer Software - Restricted
 Rights clause in FAR 52.227-19.
  
 Gaussian, Inc.
 340 Quinnipiac St., Bldg. 40, Wallingford CT 06492
  
  
 ---------------------------------------------------------------
 Warning -- This program may not be used in any manner that
 competes with the business of Gaussian, Inc. or will provide
 assistance to any competitor of Gaussian, Inc.  The licensee
 of this program is prohibited from giving any competitor of
 Gaussian, Inc. access to this program.  By using this program,
 the user acknowledges that Gaussian, Inc. is engaged in the
 business of creating and licensing software in the field of
 computational chemistry and represents and warrants to the
 licensee that it is not a competitor of Gaussian, Inc. and that
 it will not use this program in any manner prohibited above.
 ---------------------------------------------------------------
  

 Cite this work as:
 Gaussian 09, Revision D.01,
 M. J. Frisch, G. W. Trucks, H. B. Schlegel, G. E. Scuseria, 
 M. A. Robb, J. R. Cheeseman, G. Scalmani, V. Barone, B. Mennucci, 
 G. A. Petersson, H. Nakatsuji, M. Caricato, X. Li, H. P. Hratchian, 
 A. F. Izmaylov, J. Bloino, G. Zheng, J. L. Sonnenberg, M. Hada, 
 M. Ehara, K. Toyota, R. Fukuda, J. Hasegawa, M. Ishida, T. Nakajima, 
 Y. Honda, O. Kitao, H. Nakai, T. Vreven, J. A. Montgomery, Jr., 
 J. E. Peralta, F. Ogliaro, M. Bearpark, J. J. Heyd, E. Brothers, 
 K. N. Kudin, V. N. Staroverov, T. Keith, R. Kobayashi, J. Normand, 
 K. Raghavachari, A. Rendell, J. C. Burant, S. S. Iyengar, J. Tomasi, 
 M. Cossi, N. Rega, J. M. Millam, M. Klene, J. E. Knox, J. B. Cross, 
 V. Bakken, C. Adamo, J. Jaramillo, R. Gomperts, R. E. Stratmann, 
 O. Yazyev, A. J. Austin, R. Cammi, C. Pomelli, J. W. Ochterski, 
 R. L. Martin, K. Morokuma, V. G. Zakrzewski, G. A. Voth, 
 P. Salvador, J. J. Dannenberg, S. Dapprich, A. D. Daniels, 
 O. Farkas, J. B. Foresman, J. V. Ortiz, J. Cioslowski, 
 and D. J. Fox, Gaussian, Inc., Wallingford CT, 2013.
 
 ******************************************
 Gaussian 09:  EM64L-G09RevD.01 24-Apr-2013
                14-Sep-2018 
 ******************************************
 %chk=Acrolina_Din_36.chk
 %nprocshared=10
 Will use up to   10 processors via shared memory.
 -------------------------------------------
 #p td=(nstates=15)/6-31+g(d) lc-wpbe charge
 -------------------------------------------
 1/18=10,28=-2,38=1,125=101/1;
 2/12=2,17=6,18=5,40=1/2;
 3/5=1,6=6,7=11,11=9,16=1,25=1,30=1,74=-41/1,2,8,3;
 4//1;
 5/5=2,38=5/2;
 8/6=1,10=2,108=15/1;
 9/41=15,42=1,70=2/14;
 6/7=2,8=2,9=2,10=2/1;
 99/5=1,9=1/99;
 Leave Link    1 at Fri Sep 14 17:07:41 2018, MaxMem=           0 cpu:         7.8
 (Enter /usr/local/pacerepov1/gaussian/G09D01LINDA/g09/l101.exe)
 ------------------
 Acroleina in Water
 ------------------
 Symbolic Z-matrix:
 Charge =  0 Multiplicity = 1
 C                     0.48515   0.48044  -1.43014 
 H                     1.4614    0.18777  -1.05573 
 H                     0.42924   0.87885  -2.43706 
 C                    -0.60513   0.34656  -0.65843 
 H                    -1.59169   0.63289  -1.01241 
 C                    -0.50852  -0.19911   0.7128 
 H                    -1.45849  -0.27211   1.27244 
 O                     0.54488  -0.56132   1.23652 
 O                    -0.36952  -1.30283   3.03178 
 H                    -0.33253  -0.41331   2.5764 
 H                     0.11921  -1.25192   3.90276 
 O                     2.35481   1.27174   1.14575 
 H                     2.335     2.16323   0.69305 
 H                     1.48291   1.11394   1.60934 
 O                    -0.17142   3.95566  -0.78341 
 H                     0.35176   4.76612  -1.04701 
 H                    -1.13559   4.09299  -1.01048 
 O                    -2.78739   4.32008  -0.8891 
 H                    -3.47694   3.60264  -0.9883 
 H                    -2.80569   4.67285   0.04645 
 O                     0.48604  -3.56163   2.92889 
 H                     0.0108   -2.69411   2.7819 
 H                    -0.17557  -4.31126   2.911 
 O                     2.18168   3.20857  -0.0305 
 H                     2.71652   3.6133   -0.7722 
 H                     1.2075    3.35108  -0.20587 
 O                    -2.61893  -1.52901   3.77875 
 H                    -2.68164  -2.12186   4.58165 
 H                    -1.65943  -1.42044   3.51875 
 O                    -3.10336   4.62642   1.46966 
 H                    -3.96283   4.13151   1.59802 
 H                    -2.341     4.05448   1.77254 
 O                     4.68962   1.066     0.84508 
 H                     4.75665   1.35472  -0.11 
 H                     3.72745   1.02787   1.11498 
 O                     2.11419  -4.92385   1.83457 
 H                     1.53557  -4.19175   2.19416 
 H                     2.25421  -5.61613   2.54252 
 O                     2.45432  -2.50449   4.23531 
 H                     3.33883  -2.4862    3.76907 
 H                     1.8019   -3.03261   3.69173 
 O                     3.74975  -1.50269  -4.6722 
 H                     3.31863  -0.82463  -5.26757 
 H                     4.3336   -1.03824  -4.00627 
 O                     0.88756  -0.98138   4.95672 
 H                     1.29362  -0.31832   5.58559 
 H                     1.5473   -1.70871   4.76767 
 O                    -5.04143   2.96791  -0.96683 
 H                    -5.51905   3.82723  -0.78385 
 H                    -5.61964   2.19998  -0.69111 
 
 NAtoms=     50 NQM=       50 NQMF=       0 NMMI=      0 NMMIF=      0
                NMic=       0 NMicF=      0.
                    Isotopes and Nuclear Properties:
 (Nuclear quadrupole moments (NQMom) in fm**2, nuclear magnetic moments (NMagM)
  in nuclear magnetons)

  Atom         1           2           3           4           5           6           7           8           9          10
 IAtWgt=          12           1           1          12           1          12           1          16          16           1
 AtmWgt=  12.0000000   1.0078250   1.0078250  12.0000000   1.0078250  12.0000000   1.0078250  15.9949146  15.9949146   1.0078250
 NucSpn=           0           1           1           0           1           0           1           0           0           1
 AtZEff=   0.0000000   0.0000000   0.0000000   0.0000000   0.0000000   0.0000000   0.0000000   0.0000000   0.0000000   0.0000000
 NQMom=    0.0000000   0.0000000   0.0000000   0.0000000   0.0000000   0.0000000   0.0000000   0.0000000   0.0000000   0.0000000
 NMagM=    0.0000000   2.7928460   2.7928460   0.0000000   2.7928460   0.0000000   2.7928460   0.0000000   0.0000000   2.7928460
 AtZNuc=   6.0000000   1.0000000   1.0000000   6.0000000   1.0000000   6.0000000   1.0000000   8.0000000   8.0000000   1.0000000

  Atom        11          12          13          14          15          16          17          18          19          20
 IAtWgt=           1          16           1           1          16           1           1          16           1           1
 AtmWgt=   1.0078250  15.9949146   1.0078250   1.0078250  15.9949146   1.0078250   1.0078250  15.9949146   1.0078250   1.0078250
 NucSpn=           1           0           1           1           0           1           1           0           1           1
 AtZEff=   0.0000000   0.0000000   0.0000000   0.0000000   0.0000000   0.0000000   0.0000000   0.0000000   0.0000000   0.0000000
 NQMom=    0.0000000   0.0000000   0.0000000   0.0000000   0.0000000   0.0000000   0.0000000   0.0000000   0.0000000   0.0000000
 NMagM=    2.7928460   0.0000000   2.7928460   2.7928460   0.0000000   2.7928460   2.7928460   0.0000000   2.7928460   2.7928460
 AtZNuc=   1.0000000   8.0000000   1.0000000   1.0000000   8.0000000   1.0000000   1.0000000   8.0000000   1.0000000   1.0000000

  Atom        21          22          23          24          25          26          27          28          29          30
 IAtWgt=          16           1           1          16           1           1          16           1           1          16
 AtmWgt=  15.9949146   1.0078250   1.0078250  15.9949146   1.0078250   1.0078250  15.9949146   1.0078250   1.0078250  15.9949146
 NucSpn=           0           1           1           0           1           1           0           1           1           0
 AtZEff=   0.0000000   0.0000000   0.0000000   0.0000000   0.0000000   0.0000000   0.0000000   0.0000000   0.0000000   0.0000000
 NQMom=    0.0000000   0.0000000   0.0000000   0.0000000   0.0000000   0.0000000   0.0000000   0.0000000   0.0000000   0.0000000
 NMagM=    0.0000000   2.7928460   2.7928460   0.0000000   2.7928460   2.7928460   0.0000000   2.7928460   2.7928460   0.0000000
 AtZNuc=   8.0000000   1.0000000   1.0000000   8.0000000   1.0000000   1.0000000   8.0000000   1.0000000   1.0000000   8.0000000

  Atom        31          32          33          34          35          36          37          38          39          40
 IAtWgt=           1           1          16           1           1          16           1           1          16           1
 AtmWgt=   1.0078250   1.0078250  15.9949146   1.0078250   1.0078250  15.9949146   1.0078250   1.0078250  15.9949146   1.0078250
 NucSpn=           1           1           0           1           1           0           1           1           0           1
 AtZEff=   0.0000000   0.0000000   0.0000000   0.0000000   0.0000000   0.0000000   0.0000000   0.0000000   0.0000000   0.0000000
 NQMom=    0.0000000   0.0000000   0.0000000   0.0000000   0.0000000   0.0000000   0.0000000   0.0000000   0.0000000   0.0000000
 NMagM=    2.7928460   2.7928460   0.0000000   2.7928460   2.7928460   0.0000000   2.7928460   2.7928460   0.0000000   2.7928460
 AtZNuc=   1.0000000   1.0000000   8.0000000   1.0000000   1.0000000   8.0000000   1.0000000   1.0000000   8.0000000   1.0000000

  Atom        41          42          43          44          45          46          47          48          49          50
 IAtWgt=           1          16           1           1          16           1           1          16           1           1
 AtmWgt=   1.0078250  15.9949146   1.0078250   1.0078250  15.9949146   1.0078250   1.0078250  15.9949146   1.0078250   1.0078250
 NucSpn=           1           0           1           1           0           1           1           0           1           1
 AtZEff=   0.0000000   0.0000000   0.0000000   0.0000000   0.0000000   0.0000000   0.0000000   0.0000000   0.0000000   0.0000000
 NQMom=    0.0000000   0.0000000   0.0000000   0.0000000   0.0000000   0.0000000   0.0000000   0.0000000   0.0000000   0.0000000
 NMagM=    2.7928460   0.0000000   2.7928460   2.7928460   0.0000000   2.7928460   2.7928460   0.0000000   2.7928460   2.7928460
 AtZNuc=   1.0000000   8.0000000   1.0000000   1.0000000   8.0000000   1.0000000   1.0000000   8.0000000   1.0000000   1.0000000
 Background charge distribution read from input stream:
 Point Charges:
 XYZ=    4.5750   -3.5458   -4.2027 Q=   -0.8200 A=    0.0000 R=    0.0000 C=    0.0000
 XYZ=    5.2309   -3.3442   -3.4752 Q=    0.4100 A=    0.0000 R=    0.0000 C=    0.0000
 XYZ=    4.0930   -2.7077   -4.4585 Q=    0.4100 A=    0.0000 R=    0.0000 C=    0.0000
 XYZ=    5.1039   -0.3004   -3.3790 Q=   -0.8200 A=    0.0000 R=    0.0000 C=    0.0000
 XYZ=    5.8578   -0.2439   -4.0336 Q=    0.4100 A=    0.0000 R=    0.0000 C=    0.0000
 XYZ=    5.2433   -1.0868   -2.7772 Q=    0.4100 A=    0.0000 R=    0.0000 C=    0.0000
 XYZ=   -1.9745    5.9012   -2.3764 Q=   -0.8200 A=    0.0000 R=    0.0000 C=    0.0000
 XYZ=   -2.2308    5.2078   -1.7028 Q=    0.4100 A=    0.0000 R=    0.0000 C=    0.0000
 XYZ=   -1.8590    6.7831   -1.9194 Q=    0.4100 A=    0.0000 R=    0.0000 C=    0.0000
 XYZ=    5.6033   -2.2313   -2.1198 Q=   -0.8200 A=    0.0000 R=    0.0000 C=    0.0000
 XYZ=    6.5339   -1.9339   -1.9062 Q=    0.4100 A=    0.0000 R=    0.0000 C=    0.0000
 XYZ=    5.3010   -2.8966   -1.4372 Q=    0.4100 A=    0.0000 R=    0.0000 C=    0.0000
 XYZ=    2.4380    4.9980    1.5665 Q=   -0.8200 A=    0.0000 R=    0.0000 C=    0.0000
 XYZ=    2.2455    4.2310    0.9544 Q=    0.4100 A=    0.0000 R=    0.0000 C=    0.0000
 XYZ=    1.9330    5.8046    1.2592 Q=    0.4100 A=    0.0000 R=    0.0000 C=    0.0000
 XYZ=    4.0437   -5.3100    0.4833 Q=   -0.8200 A=    0.0000 R=    0.0000 C=    0.0000
 XYZ=    3.2070   -5.1801    1.0154 Q=    0.4100 A=    0.0000 R=    0.0000 C=    0.0000
 XYZ=    3.8779   -5.9802   -0.2402 Q=    0.4100 A=    0.0000 R=    0.0000 C=    0.0000
 XYZ=    5.0668    1.5428   -1.7597 Q=   -0.8200 A=    0.0000 R=    0.0000 C=    0.0000
 XYZ=    4.9497    2.4550   -2.1525 Q=    0.4100 A=    0.0000 R=    0.0000 C=    0.0000
 XYZ=    4.7826    0.8538   -2.4264 Q=    0.4100 A=    0.0000 R=    0.0000 C=    0.0000
 XYZ=    6.3195   -0.4953    0.8498 Q=   -0.8200 A=    0.0000 R=    0.0000 C=    0.0000
 XYZ=    5.5230    0.1016    0.9471 Q=    0.4100 A=    0.0000 R=    0.0000 C=    0.0000
 XYZ=    6.1159   -1.3901    1.2473 Q=    0.4100 A=    0.0000 R=    0.0000 C=    0.0000
 XYZ=    4.6354   -2.0173    3.4825 Q=   -0.8200 A=    0.0000 R=    0.0000 C=    0.0000
 XYZ=    4.7337   -1.0442    3.6911 Q=    0.4100 A=    0.0000 R=    0.0000 C=    0.0000
 XYZ=    5.1477   -2.2333    2.6513 Q=    0.4100 A=    0.0000 R=    0.0000 C=    0.0000
 XYZ=    5.5654   -3.8306   -0.3703 Q=   -0.8200 A=    0.0000 R=    0.0000 C=    0.0000
 XYZ=    4.7801   -4.4235   -0.1916 Q=    0.4100 A=    0.0000 R=    0.0000 C=    0.0000
 XYZ=    6.3673   -4.3922   -0.5744 Q=    0.4100 A=    0.0000 R=    0.0000 C=    0.0000
 XYZ=    2.6442   -0.5060   -6.7177 Q=   -0.8200 A=    0.0000 R=    0.0000 C=    0.0000
 XYZ=    2.7950    0.3122   -7.2727 Q=    0.4100 A=    0.0000 R=    0.0000 C=    0.0000
 XYZ=    1.8195   -0.3863   -6.1650 Q=    0.4100 A=    0.0000 R=    0.0000 C=    0.0000
 XYZ=    4.0731   -5.8592   -3.4159 Q=   -0.8200 A=    0.0000 R=    0.0000 C=    0.0000
 XYZ=    4.2597   -4.8819   -3.5167 Q=    0.4100 A=    0.0000 R=    0.0000 C=    0.0000
 XYZ=    3.4623   -6.1592   -4.1487 Q=    0.4100 A=    0.0000 R=    0.0000 C=    0.0000
 XYZ=    5.9283   -2.7355    1.6846 Q=   -0.8200 A=    0.0000 R=    0.0000 C=    0.0000
 XYZ=    5.6649   -3.1670    0.8217 Q=    0.4100 A=    0.0000 R=    0.0000 C=    0.0000
 XYZ=    6.1142   -3.4421    2.3674 Q=    0.4100 A=    0.0000 R=    0.0000 C=    0.0000
 XYZ=   -5.2808    3.9011   -3.1855 Q=   -0.8200 A=    0.0000 R=    0.0000 C=    0.0000
 XYZ=   -5.0931    3.4420   -2.3171 Q=    0.4100 A=    0.0000 R=    0.0000 C=    0.0000
 XYZ=   -5.8457    3.3090   -3.7602 Q=    0.4100 A=    0.0000 R=    0.0000 C=    0.0000
 XYZ=    1.2268   -7.3014   -0.4318 Q=   -0.8200 A=    0.0000 R=    0.0000 C=    0.0000
 XYZ=    1.1107   -6.3679   -0.0926 Q=    0.4100 A=    0.0000 R=    0.0000 C=    0.0000
 XYZ=    2.1131   -7.3826   -0.8878 Q=    0.4100 A=    0.0000 R=    0.0000 C=    0.0000
 XYZ=   -2.0486    6.8042    1.3173 Q=   -0.8200 A=    0.0000 R=    0.0000 C=    0.0000
 XYZ=   -2.4516    7.5122    1.8973 Q=    0.4100 A=    0.0000 R=    0.0000 C=    0.0000
 XYZ=   -2.6040    5.9743    1.3698 Q=    0.4100 A=    0.0000 R=    0.0000 C=    0.0000
 XYZ=   -5.3263    3.8511    1.7212 Q=   -0.8200 A=    0.0000 R=    0.0000 C=    0.0000
 XYZ=   -5.9031    4.3056    1.0424 Q=    0.4100 A=    0.0000 R=    0.0000 C=    0.0000
 XYZ=   -5.6988    4.0104    2.6355 Q=    0.4100 A=    0.0000 R=    0.0000 C=    0.0000
 XYZ=   -3.4519    2.1255   -5.7093 Q=   -0.8200 A=    0.0000 R=    0.0000 C=    0.0000
 XYZ=   -2.9996    2.8982   -5.2638 Q=    0.4100 A=    0.0000 R=    0.0000 C=    0.0000
 XYZ=   -3.4564    2.2676   -6.6992 Q=    0.4100 A=    0.0000 R=    0.0000 C=    0.0000
 XYZ=   -4.9389   -1.9697    3.1759 Q=   -0.8200 A=    0.0000 R=    0.0000 C=    0.0000
 XYZ=   -4.0185   -1.9253    3.5645 Q=    0.4100 A=    0.0000 R=    0.0000 C=    0.0000
 XYZ=   -5.2286   -2.9249    3.1136 Q=    0.4100 A=    0.0000 R=    0.0000 C=    0.0000
 XYZ=   -5.2116    0.9314   -4.9896 Q=   -0.8200 A=    0.0000 R=    0.0000 C=    0.0000
 XYZ=   -5.0317    0.2016   -4.3299 Q=    0.4100 A=    0.0000 R=    0.0000 C=    0.0000
 XYZ=   -4.3812    1.4726   -5.1226 Q=    0.4100 A=    0.0000 R=    0.0000 C=    0.0000
 XYZ=   -0.3531   -2.4929    6.3798 Q=   -0.8200 A=    0.0000 R=    0.0000 C=    0.0000
 XYZ=    0.2066   -1.8366    5.8737 Q=    0.4100 A=    0.0000 R=    0.0000 C=    0.0000
 XYZ=   -1.2002   -2.6657    5.8772 Q=    0.4100 A=    0.0000 R=    0.0000 C=    0.0000
 XYZ=    0.8675    5.7179    3.3192 Q=   -0.8200 A=    0.0000 R=    0.0000 C=    0.0000
 XYZ=    0.5300    6.3571    2.6282 Q=    0.4100 A=    0.0000 R=    0.0000 C=    0.0000
 XYZ=    1.5608    5.1230    2.9126 Q=    0.4100 A=    0.0000 R=    0.0000 C=    0.0000
 XYZ=   -5.0822   -0.1823    4.7533 Q=   -0.8200 A=    0.0000 R=    0.0000 C=    0.0000
 XYZ=   -4.1007    0.0089    4.7681 Q=    0.4100 A=    0.0000 R=    0.0000 C=    0.0000
 XYZ=   -5.2814   -0.8478    4.0339 Q=    0.4100 A=    0.0000 R=    0.0000 C=    0.0000
 XYZ=   -2.4709    4.2438   -5.1083 Q=   -0.8200 A=    0.0000 R=    0.0000 C=    0.0000
 XYZ=   -1.4940    4.3417   -4.9179 Q=    0.4100 A=    0.0000 R=    0.0000 C=    0.0000
 XYZ=   -2.9805    4.9390   -4.6013 Q=    0.4100 A=    0.0000 R=    0.0000 C=    0.0000
 XYZ=    1.2093    5.8396   -1.6083 Q=   -0.8200 A=    0.0000 R=    0.0000 C=    0.0000
 XYZ=    2.0492    5.3059   -1.7073 Q=    0.4100 A=    0.0000 R=    0.0000 C=    0.0000
 XYZ=    0.9373    6.2015   -2.5000 Q=    0.4100 A=    0.0000 R=    0.0000 C=    0.0000
 XYZ=   -7.1558    2.0031    1.1751 Q=   -0.8200 A=    0.0000 R=    0.0000 C=    0.0000
 XYZ=   -6.4178    2.6654    1.3048 Q=    0.4100 A=    0.0000 R=    0.0000 C=    0.0000
 XYZ=   -7.1812    1.7157    0.2176 Q=    0.4100 A=    0.0000 R=    0.0000 C=    0.0000
 XYZ=    4.1638   -4.3323   -6.5067 Q=   -0.8200 A=    0.0000 R=    0.0000 C=    0.0000
 XYZ=    4.3336   -4.0237   -5.5708 Q=    0.4100 A=    0.0000 R=    0.0000 C=    0.0000
 XYZ=    4.9717   -4.8102   -6.8518 Q=    0.4100 A=    0.0000 R=    0.0000 C=    0.0000
 XYZ=    3.5741   -6.9712   -1.2652 Q=   -0.8200 A=    0.0000 R=    0.0000 C=    0.0000
 XYZ=    4.3727   -7.5462   -1.0873 Q=    0.4100 A=    0.0000 R=    0.0000 C=    0.0000
 XYZ=    3.5848   -6.6719   -2.2193 Q=    0.4100 A=    0.0000 R=    0.0000 C=    0.0000
 XYZ=   -0.9001   -5.3642    3.2804 Q=   -0.8200 A=    0.0000 R=    0.0000 C=    0.0000
 XYZ=   -1.2600   -6.0715    2.6719 Q=    0.4100 A=    0.0000 R=    0.0000 C=    0.0000
 XYZ=   -0.1315   -5.7335    3.8028 Q=    0.4100 A=    0.0000 R=    0.0000 C=    0.0000
 XYZ=    6.0845    2.8241    2.0114 Q=   -0.8200 A=    0.0000 R=    0.0000 C=    0.0000
 XYZ=    5.4674    3.5807    2.2277 Q=    0.4100 A=    0.0000 R=    0.0000 C=    0.0000
 XYZ=    5.5798    2.1110    1.5248 Q=    0.4100 A=    0.0000 R=    0.0000 C=    0.0000
 XYZ=    7.0345    0.6329   -0.9620 Q=   -0.8200 A=    0.0000 R=    0.0000 C=    0.0000
 XYZ=    6.2786    1.1271   -1.3913 Q=    0.4100 A=    0.0000 R=    0.0000 C=    0.0000
 XYZ=    6.7112    0.1906   -0.1254 Q=    0.4100 A=    0.0000 R=    0.0000 C=    0.0000
 XYZ=   -3.7262    5.7537   -3.8874 Q=   -0.8200 A=    0.0000 R=    0.0000 C=    0.0000
 XYZ=   -2.9617    5.7427   -3.2428 Q=    0.4100 A=    0.0000 R=    0.0000 C=    0.0000
 XYZ=   -4.4603    5.1679   -3.5438 Q=    0.4100 A=    0.0000 R=    0.0000 C=    0.0000
 XYZ=    1.9538    0.3244    6.6455 Q=   -0.8200 A=    0.0000 R=    0.0000 C=    0.0000
 XYZ=    2.4903   -0.3737    7.1197 Q=    0.4100 A=    0.0000 R=    0.0000 C=    0.0000
 XYZ=    2.5664    1.0280    6.2854 Q=    0.4100 A=    0.0000 R=    0.0000 C=    0.0000
 XYZ=   -6.9638    1.1400   -0.8949 Q=   -0.8200 A=    0.0000 R=    0.0000 C=    0.0000
 XYZ=   -7.2586    0.1878   -0.8148 Q=    0.4100 A=    0.0000 R=    0.0000 C=    0.0000
 XYZ=   -7.3578    1.5425   -1.7211 Q=    0.4100 A=    0.0000 R=    0.0000 C=    0.0000
 XYZ=    1.5788    4.7585    5.2479 Q=   -0.8200 A=    0.0000 R=    0.0000 C=    0.0000
 XYZ=    1.0786    5.1294    4.4654 Q=    0.4100 A=    0.0000 R=    0.0000 C=    0.0000
 XYZ=    1.0012    4.8013    6.0632 Q=    0.4100 A=    0.0000 R=    0.0000 C=    0.0000
 XYZ=    2.9751   -3.4137    6.2837 Q=   -0.8200 A=    0.0000 R=    0.0000 C=    0.0000
 XYZ=    2.8509   -3.0562    5.3580 Q=    0.4100 A=    0.0000 R=    0.0000 C=    0.0000
 XYZ=    3.0915   -2.6528    6.9220 Q=    0.4100 A=    0.0000 R=    0.0000 C=    0.0000
 XYZ=    4.9689    0.0428    4.6413 Q=   -0.8200 A=    0.0000 R=    0.0000 C=    0.0000
 XYZ=    5.2841   -0.5421    5.3886 Q=    0.4100 A=    0.0000 R=    0.0000 C=    0.0000
 XYZ=    4.2642    0.6660    4.9804 Q=    0.4100 A=    0.0000 R=    0.0000 C=    0.0000
 XYZ=    4.5236    4.3902    2.4861 Q=   -0.8200 A=    0.0000 R=    0.0000 C=    0.0000
 XYZ=    4.3433    4.0567    3.4114 Q=    0.4100 A=    0.0000 R=    0.0000 C=    0.0000
 XYZ=    3.6813    4.7620    2.0958 Q=    0.4100 A=    0.0000 R=    0.0000 C=    0.0000
 XYZ=   -0.2098    6.5653   -3.7600 Q=   -0.8200 A=    0.0000 R=    0.0000 C=    0.0000
 XYZ=   -0.9426    6.2207   -3.1732 Q=    0.4100 A=    0.0000 R=    0.0000 C=    0.0000
 XYZ=   -0.1465    5.9986   -4.5816 Q=    0.4100 A=    0.0000 R=    0.0000 C=    0.0000
 XYZ=    3.6426    1.7743    5.8352 Q=   -0.8200 A=    0.0000 R=    0.0000 C=    0.0000
 XYZ=    4.3795    1.8594    6.5057 Q=    0.4100 A=    0.0000 R=    0.0000 C=    0.0000
 XYZ=    3.5209    2.6464    5.3612 Q=    0.4100 A=    0.0000 R=    0.0000 C=    0.0000
 XYZ=    3.6763    3.9289    4.7187 Q=   -0.8200 A=    0.0000 R=    0.0000 C=    0.0000
 XYZ=    4.2900    4.4999    5.2641 Q=    0.4100 A=    0.0000 R=    0.0000 C=    0.0000
 XYZ=    2.7281    4.1858    4.9057 Q=    0.4100 A=    0.0000 R=    0.0000 C=    0.0000
 XYZ=   -1.9230    7.6865   -0.8052 Q=   -0.8200 A=    0.0000 R=    0.0000 C=    0.0000
 XYZ=   -1.1617    8.3348   -0.8199 Q=    0.4100 A=    0.0000 R=    0.0000 C=    0.0000
 XYZ=   -1.9664    7.2439    0.0906 Q=    0.4100 A=    0.0000 R=    0.0000 C=    0.0000
 XYZ=    5.0437   -6.2075    2.3599 Q=   -0.8200 A=    0.0000 R=    0.0000 C=    0.0000
 XYZ=    4.8350   -5.7801    1.4802 Q=    0.4100 A=    0.0000 R=    0.0000 C=    0.0000
 XYZ=    4.1912   -6.4433    2.8265 Q=    0.4100 A=    0.0000 R=    0.0000 C=    0.0000
 XYZ=    3.3692    4.6850   -1.5353 Q=   -0.8200 A=    0.0000 R=    0.0000 C=    0.0000
 XYZ=    3.7653    5.6031   -1.5250 Q=    0.4100 A=    0.0000 R=    0.0000 C=    0.0000
 XYZ=    3.9056    4.0974   -2.1411 Q=    0.4100 A=    0.0000 R=    0.0000 C=    0.0000
 XYZ=    5.5344   -3.3235    5.0829 Q=   -0.8200 A=    0.0000 R=    0.0000 C=    0.0000
 XYZ=    5.2021   -2.7140    4.3630 Q=    0.4100 A=    0.0000 R=    0.0000 C=    0.0000
 XYZ=    4.7648   -3.6253    5.6456 Q=    0.4100 A=    0.0000 R=    0.0000 C=    0.0000
 XYZ=    0.1885    7.4047    1.6548 Q=   -0.8200 A=    0.0000 R=    0.0000 C=    0.0000
 XYZ=    0.2101    8.1641    2.3050 Q=    0.4100 A=    0.0000 R=    0.0000 C=    0.0000
 XYZ=   -0.7608    7.1459    1.4761 Q=    0.4100 A=    0.0000 R=    0.0000 C=    0.0000
 XYZ=    0.6712    1.9660    7.7144 Q=   -0.8200 A=    0.0000 R=    0.0000 C=    0.0000
 XYZ=    1.0836    1.2417    7.1617 Q=    0.4100 A=    0.0000 R=    0.0000 C=    0.0000
 XYZ=   -0.2698    1.7161    7.9427 Q=    0.4100 A=    0.0000 R=    0.0000 C=    0.0000
 XYZ=   -6.3172    4.8327   -0.2794 Q=   -0.8200 A=    0.0000 R=    0.0000 C=    0.0000
 XYZ=   -6.0191    5.7803   -0.1644 Q=    0.4100 A=    0.0000 R=    0.0000 C=    0.0000
 XYZ=   -7.1750    4.8132   -0.7931 Q=    0.4100 A=    0.0000 R=    0.0000 C=    0.0000
 XYZ=    3.9163   -2.3269   -7.6981 Q=   -0.8200 A=    0.0000 R=    0.0000 C=    0.0000
 XYZ=    3.7844   -3.2074   -7.2427 Q=    0.4100 A=    0.0000 R=    0.0000 C=    0.0000
 XYZ=    3.2543   -1.6662   -7.3441 Q=    0.4100 A=    0.0000 R=    0.0000 C=    0.0000
 XYZ=   -6.7992   -2.3679    1.0804 Q=   -0.8200 A=    0.0000 R=    0.0000 C=    0.0000
 XYZ=   -5.9782   -2.2585    1.6408 Q=    0.4100 A=    0.0000 R=    0.0000 C=    0.0000
 XYZ=   -6.9912   -3.3416    0.9570 Q=    0.4100 A=    0.0000 R=    0.0000 C=    0.0000
 XYZ=   -2.8305   -3.1016    5.5166 Q=   -0.8200 A=    0.0000 R=    0.0000 C=    0.0000
 XYZ=   -3.2345   -2.8868    6.4058 Q=    0.4100 A=    0.0000 R=    0.0000 C=    0.0000
 XYZ=   -3.0883   -4.0300    5.2488 Q=    0.4100 A=    0.0000 R=    0.0000 C=    0.0000
 XYZ=    1.8681    7.4329   -0.0432 Q=   -0.8200 A=    0.0000 R=    0.0000 C=    0.0000
 XYZ=    1.1253    7.5188    0.6208 Q=    0.4100 A=    0.0000 R=    0.0000 C=    0.0000
 XYZ=    1.6248    6.7464   -0.7285 Q=    0.4100 A=    0.0000 R=    0.0000 C=    0.0000
 XYZ=    2.6474   -6.6474    3.1920 Q=   -0.8200 A=    0.0000 R=    0.0000 C=    0.0000
 XYZ=    1.9176   -6.4851    3.8561 Q=    0.4100 A=    0.0000 R=    0.0000 C=    0.0000
 XYZ=    2.7480   -7.6308    3.0409 Q=    0.4100 A=    0.0000 R=    0.0000 C=    0.0000
 XYZ=   -1.8617    4.3747   -7.3632 Q=   -0.8200 A=    0.0000 R=    0.0000 C=    0.0000
 XYZ=   -2.2081    4.1760   -6.4464 Q=    0.4100 A=    0.0000 R=    0.0000 C=    0.0000
 XYZ=   -2.5945    4.7681   -7.9184 Q=    0.4100 A=    0.0000 R=    0.0000 C=    0.0000
 XYZ=    6.2752   -6.3859   -2.5606 Q=   -0.8200 A=    0.0000 R=    0.0000 C=    0.0000
 XYZ=    5.3562   -6.3022   -2.9459 Q=    0.4100 A=    0.0000 R=    0.0000 C=    0.0000
 XYZ=    6.9483   -6.3826   -3.3002 Q=    0.4100 A=    0.0000 R=    0.0000 C=    0.0000
 XYZ=    8.4110   -0.4244    1.9601 Q=   -0.8200 A=    0.0000 R=    0.0000 C=    0.0000
 XYZ=    8.2808    0.0922    2.8063 Q=    0.4100 A=    0.0000 R=    0.0000 C=    0.0000
 XYZ=    7.5409   -0.4886    1.4715 Q=    0.4100 A=    0.0000 R=    0.0000 C=    0.0000
 XYZ=    7.7777   -1.5510   -1.4682 Q=   -0.8200 A=    0.0000 R=    0.0000 C=    0.0000
 XYZ=    7.5541   -0.5764   -1.4507 Q=    0.4100 A=    0.0000 R=    0.0000 C=    0.0000
 XYZ=    8.1158   -1.8315   -0.5699 Q=    0.4100 A=    0.0000 R=    0.0000 C=    0.0000
 XYZ=    6.3416   -4.3661    3.2034 Q=   -0.8200 A=    0.0000 R=    0.0000 C=    0.0000
 XYZ=    6.1033   -4.0553    4.1235 Q=    0.4100 A=    0.0000 R=    0.0000 C=    0.0000
 XYZ=    5.7416   -5.1219    2.9411 Q=    0.4100 A=    0.0000 R=    0.0000 C=    0.0000
 XYZ=   -7.8954    0.5994    2.7329 Q=   -0.8200 A=    0.0000 R=    0.0000 C=    0.0000
 XYZ=   -7.5430    1.2931    2.1047 Q=    0.4100 A=    0.0000 R=    0.0000 C=    0.0000
 XYZ=   -7.4876    0.7302    3.6366 Q=    0.4100 A=    0.0000 R=    0.0000 C=    0.0000
 XYZ=   -6.7259    2.5938   -4.7126 Q=   -0.8200 A=    0.0000 R=    0.0000 C=    0.0000
 XYZ=   -6.9296    3.0399   -5.5841 Q=    0.4100 A=    0.0000 R=    0.0000 C=    0.0000
 XYZ=   -6.1249    1.8105   -4.8716 Q=    0.4100 A=    0.0000 R=    0.0000 C=    0.0000
 XYZ=   -0.0964    5.2422   -5.8871 Q=   -0.8200 A=    0.0000 R=    0.0000 C=    0.0000
 XYZ=   -0.7634    4.9660   -6.5790 Q=    0.4100 A=    0.0000 R=    0.0000 C=    0.0000
 XYZ=    0.8188    4.9599   -6.1751 Q=    0.4100 A=    0.0000 R=    0.0000 C=    0.0000
 XYZ=   -1.6293   -6.9522    1.8323 Q=   -0.8200 A=    0.0000 R=    0.0000 C=    0.0000
 XYZ=   -1.2452   -7.6408    1.2172 Q=    0.4100 A=    0.0000 R=    0.0000 C=    0.0000
 XYZ=   -2.6079   -6.8531    1.6521 Q=    0.4100 A=    0.0000 R=    0.0000 C=    0.0000
 XYZ=    0.8616   -4.4372    6.5681 Q=   -0.8200 A=    0.0000 R=    0.0000 C=    0.0000
 XYZ=    1.8331   -4.2276    6.4575 Q=    0.4100 A=    0.0000 R=    0.0000 C=    0.0000
 XYZ=    0.3266   -3.5977    6.4734 Q=    0.4100 A=    0.0000 R=    0.0000 C=    0.0000
 XYZ=   -2.8798   -5.5468    4.6154 Q=   -0.8200 A=    0.0000 R=    0.0000 C=    0.0000
 XYZ=   -2.0456   -5.4490    4.0727 Q=    0.4100 A=    0.0000 R=    0.0000 C=    0.0000
 XYZ=   -2.8121   -6.3652    5.1861 Q=    0.4100 A=    0.0000 R=    0.0000 C=    0.0000
 XYZ=   -7.8730   -1.2975   -0.6955 Q=   -0.8200 A=    0.0000 R=    0.0000 C=    0.0000
 XYZ=   -8.2185   -2.1072   -1.1698 Q=    0.4100 A=    0.0000 R=    0.0000 C=    0.0000
 XYZ=   -7.2494   -1.5792    0.0338 Q=    0.4100 A=    0.0000 R=    0.0000 C=    0.0000
 XYZ=    0.0976    4.3602    7.5504 Q=   -0.8200 A=    0.0000 R=    0.0000 C=    0.0000
 XYZ=    0.4732    4.6220    8.4395 Q=    0.4100 A=    0.0000 R=    0.0000 C=    0.0000
 XYZ=    0.3145    3.4015    7.3663 Q=    0.4100 A=    0.0000 R=    0.0000 C=    0.0000
 XYZ=    7.0316    1.3486    3.7284 Q=   -0.8200 A=    0.0000 R=    0.0000 C=    0.0000
 XYZ=    6.7079    1.7679    2.8802 Q=    0.4100 A=    0.0000 R=    0.0000 C=    0.0000
 XYZ=    6.2899    0.8221    4.1441 Q=    0.4100 A=    0.0000 R=    0.0000 C=    0.0000
 XYZ=    0.8037   -6.1799    4.8062 Q=   -0.8200 A=    0.0000 R=    0.0000 C=    0.0000
 XYZ=    0.2502   -6.9022    5.2207 Q=    0.4100 A=    0.0000 R=    0.0000 C=    0.0000
 XYZ=    0.9196   -5.4321    5.4600 Q=    0.4100 A=    0.0000 R=    0.0000 C=    0.0000
 XYZ=    5.0579    3.7490   -2.8629 Q=   -0.8200 A=    0.0000 R=    0.0000 C=    0.0000
 XYZ=    5.9165    4.0975   -2.4871 Q=    0.4100 A=    0.0000 R=    0.0000 C=    0.0000
 XYZ=    5.0540    3.8724   -3.8553 Q=    0.4100 A=    0.0000 R=    0.0000 C=    0.0000
 XYZ=   -5.9189    1.4722   -7.2323 Q=   -0.8200 A=    0.0000 R=    0.0000 C=    0.0000
 XYZ=   -6.0879    0.6644   -7.7969 Q=    0.4100 A=    0.0000 R=    0.0000 C=    0.0000
 XYZ=   -5.5546    1.1885   -6.3453 Q=    0.4100 A=    0.0000 R=    0.0000 C=    0.0000
 XYZ=    5.6181   -0.8926   -7.3823 Q=   -0.8200 A=    0.0000 R=    0.0000 C=    0.0000
 XYZ=    6.0532   -0.9180   -6.4822 Q=    0.4100 A=    0.0000 R=    0.0000 C=    0.0000
 XYZ=    4.8163   -1.4903   -7.3818 Q=    0.4100 A=    0.0000 R=    0.0000 C=    0.0000
 XYZ=    6.8227   -0.1915   -5.2259 Q=   -0.8200 A=    0.0000 R=    0.0000 C=    0.0000
 XYZ=    7.3097    0.6819   -5.2108 Q=    0.4100 A=    0.0000 R=    0.0000 C=    0.0000
 XYZ=    7.4444   -0.9245   -4.9498 Q=    0.4100 A=    0.0000 R=    0.0000 C=    0.0000
 XYZ=   -6.2463    4.2712    3.8427 Q=   -0.8200 A=    0.0000 R=    0.0000 C=    0.0000
 XYZ=   -6.9601    4.8441    3.4397 Q=    0.4100 A=    0.0000 R=    0.0000 C=    0.0000
 XYZ=   -6.6294    3.7476    4.6037 Q=    0.4100 A=    0.0000 R=    0.0000 C=    0.0000
 XYZ=    8.0113   -2.5511   -4.1474 Q=   -0.8200 A=    0.0000 R=    0.0000 C=    0.0000
 XYZ=    8.7569   -2.2983   -3.5308 Q=    0.4100 A=    0.0000 R=    0.0000 C=    0.0000
 XYZ=    7.5592   -3.3743   -3.8039 Q=    0.4100 A=    0.0000 R=    0.0000 C=    0.0000
 XYZ=   -7.1711    0.7996    5.0952 Q=   -0.8200 A=    0.0000 R=    0.0000 C=    0.0000
 XYZ=   -6.2465    0.5224    4.8335 Q=    0.4100 A=    0.0000 R=    0.0000 C=    0.0000
 XYZ=   -7.6272    0.0411    5.5608 Q=    0.4100 A=    0.0000 R=    0.0000 C=    0.0000
 XYZ=   -0.4187   -8.6249    0.8141 Q=   -0.8200 A=    0.0000 R=    0.0000 C=    0.0000
 XYZ=    0.4506   -8.3602    0.3966 Q=    0.4100 A=    0.0000 R=    0.0000 C=    0.0000
 XYZ=   -0.9455   -9.1753    0.1663 Q=    0.4100 A=    0.0000 R=    0.0000 C=    0.0000
 XYZ=   -5.7551   -1.9432    6.2395 Q=   -0.8200 A=    0.0000 R=    0.0000 C=    0.0000
 XYZ=   -5.4020   -1.1383    5.7625 Q=    0.4100 A=    0.0000 R=    0.0000 C=    0.0000
 XYZ=   -4.9934   -2.4587    6.6320 Q=    0.4100 A=    0.0000 R=    0.0000 C=    0.0000
 XYZ=    2.8263    1.3079   -7.9777 Q=   -0.8200 A=    0.0000 R=    0.0000 C=    0.0000
 XYZ=    3.8174    1.4206   -8.0495 Q=    0.4100 A=    0.0000 R=    0.0000 C=    0.0000
 XYZ=    2.4319    1.2359   -8.8938 Q=    0.4100 A=    0.0000 R=    0.0000 C=    0.0000
 XYZ=   -1.6923    6.3209    5.4771 Q=   -0.8200 A=    0.0000 R=    0.0000 C=    0.0000
 XYZ=   -2.4322    6.8396    5.0487 Q=    0.4100 A=    0.0000 R=    0.0000 C=    0.0000
 XYZ=   -2.0751    5.5404    5.9713 Q=    0.4100 A=    0.0000 R=    0.0000 C=    0.0000
 XYZ=    1.9121    3.4424   -7.9329 Q=   -0.8200 A=    0.0000 R=    0.0000 C=    0.0000
 XYZ=    2.5304    4.1107   -7.5193 Q=    0.4100 A=    0.0000 R=    0.0000 C=    0.0000
 XYZ=    2.3275    2.5337   -7.8915 Q=    0.4100 A=    0.0000 R=    0.0000 C=    0.0000
 XYZ=    7.5037   -5.1782   -0.7554 Q=   -0.8200 A=    0.0000 R=    0.0000 C=    0.0000
 XYZ=    8.4852   -5.3242   -0.8798 Q=    0.4100 A=    0.0000 R=    0.0000 C=    0.0000
 XYZ=    6.9967   -5.7686   -1.3834 Q=    0.4100 A=    0.0000 R=    0.0000 C=    0.0000
 XYZ=   -1.6031   -2.3597    8.5971 Q=   -0.8200 A=    0.0000 R=    0.0000 C=    0.0000
 XYZ=   -0.8824   -2.0735    7.9656 Q=    0.4100 A=    0.0000 R=    0.0000 C=    0.0000
 XYZ=   -1.2215   -2.9872    9.2759 Q=    0.4100 A=    0.0000 R=    0.0000 C=    0.0000
 XYZ=   -4.9771    5.6621    5.5713 Q=   -0.8200 A=    0.0000 R=    0.0000 C=    0.0000
 XYZ=   -5.8371    6.0525    5.9001 Q=    0.4100 A=    0.0000 R=    0.0000 C=    0.0000
 XYZ=   -5.1641    5.0303    4.8191 Q=    0.4100 A=    0.0000 R=    0.0000 C=    0.0000
 XYZ=    3.1558   -5.7939   -8.2081 Q=   -0.8200 A=    0.0000 R=    0.0000 C=    0.0000
 XYZ=    3.8211   -5.7838   -8.9546 Q=    0.4100 A=    0.0000 R=    0.0000 C=    0.0000
 XYZ=    3.4237   -5.1258   -7.5139 Q=    0.4100 A=    0.0000 R=    0.0000 C=    0.0000
 XYZ=    3.3799   -1.4316    7.4400 Q=   -0.8200 A=    0.0000 R=    0.0000 C=    0.0000
 XYZ=    3.6853   -1.4622    8.3918 Q=    0.4100 A=    0.0000 R=    0.0000 C=    0.0000
 XYZ=    4.1477   -1.1785    6.8515 Q=    0.4100 A=    0.0000 R=    0.0000 C=    0.0000
 XYZ=   -5.8344   -4.8060   -5.5635 Q=   -0.8200 A=    0.0000 R=    0.0000 C=    0.0000
 XYZ=   -6.2365   -4.4283   -6.3976 Q=    0.4100 A=    0.0000 R=    0.0000 C=    0.0000
 XYZ=   -4.9022   -4.4602   -5.4567 Q=    0.4100 A=    0.0000 R=    0.0000 C=    0.0000
 XYZ=   -5.7216    7.1343   -0.1556 Q=   -0.8200 A=    0.0000 R=    0.0000 C=    0.0000
 XYZ=   -5.0077    7.6672   -0.6100 Q=    0.4100 A=    0.0000 R=    0.0000 C=    0.0000
 XYZ=   -6.3712    7.7543    0.2845 Q=    0.4100 A=    0.0000 R=    0.0000 C=    0.0000
 XYZ=   -4.1499    8.0776   -3.7217 Q=   -0.8200 A=    0.0000 R=    0.0000 C=    0.0000
 XYZ=   -4.4710    8.3037   -2.8020 Q=    0.4100 A=    0.0000 R=    0.0000 C=    0.0000
 XYZ=   -4.0391    7.0869   -3.8017 Q=    0.4100 A=    0.0000 R=    0.0000 C=    0.0000
 XYZ=   -3.9027    2.6076   -7.9432 Q=   -0.8200 A=    0.0000 R=    0.0000 C=    0.0000
 XYZ=   -4.8297    2.4253   -7.6153 Q=    0.4100 A=    0.0000 R=    0.0000 C=    0.0000
 XYZ=   -3.7455    3.5949   -7.9663 Q=    0.4100 A=    0.0000 R=    0.0000 C=    0.0000
 XYZ=   -1.5175   -1.9371   -9.8166 Q=   -0.8200 A=    0.0000 R=    0.0000 C=    0.0000
 XYZ=   -1.6432   -2.7914  -10.3210 Q=    0.4100 A=    0.0000 R=    0.0000 C=    0.0000
 XYZ=   -1.7335   -2.0851   -8.8515 Q=    0.4100 A=    0.0000 R=    0.0000 C=    0.0000
 XYZ=    0.1006    8.8903   -0.9885 Q=   -0.8200 A=    0.0000 R=    0.0000 C=    0.0000
 XYZ=   -0.0593    8.9100   -1.9755 Q=    0.4100 A=    0.0000 R=    0.0000 C=    0.0000
 XYZ=    0.9308    8.3673   -0.7958 Q=    0.4100 A=    0.0000 R=    0.0000 C=    0.0000
 XYZ=   -0.4650    8.8236   -3.2022 Q=   -0.8200 A=    0.0000 R=    0.0000 C=    0.0000
 XYZ=   -1.1366    9.2360   -3.8178 Q=    0.4100 A=    0.0000 R=    0.0000 C=    0.0000
 XYZ=   -0.3255    7.8661   -3.4545 Q=    0.4100 A=    0.0000 R=    0.0000 C=    0.0000
 XYZ=    8.0275   -5.1974    1.7168 Q=   -0.8200 A=    0.0000 R=    0.0000 C=    0.0000
 XYZ=    7.3755   -4.8380    2.3844 Q=    0.4100 A=    0.0000 R=    0.0000 C=    0.0000
 XYZ=    7.6221   -5.1633    0.8033 Q=    0.4100 A=    0.0000 R=    0.0000 C=    0.0000
 XYZ=    8.5098    2.5928   -0.8004 Q=   -0.8200 A=    0.0000 R=    0.0000 C=    0.0000
 XYZ=    7.9754    1.7544   -0.6924 Q=    0.4100 A=    0.0000 R=    0.0000 C=    0.0000
 XYZ=    8.8319    2.9004    0.0950 Q=    0.4100 A=    0.0000 R=    0.0000 C=    0.0000
 XYZ=   -0.1614    3.6556   -9.0943 Q=   -0.8200 A=    0.0000 R=    0.0000 C=    0.0000
 XYZ=   -0.8700    3.6581   -8.3887 Q=    0.4100 A=    0.0000 R=    0.0000 C=    0.0000
 XYZ=    0.7290    3.4856   -8.6718 Q=    0.4100 A=    0.0000 R=    0.0000 C=    0.0000
 XYZ=   -8.3108    2.4739   -2.8967 Q=   -0.8200 A=    0.0000 R=    0.0000 C=    0.0000
 XYZ=   -7.7240    2.5838   -3.6990 Q=    0.4100 A=    0.0000 R=    0.0000 C=    0.0000
 XYZ=   -9.1927    2.0956   -3.1782 Q=    0.4100 A=    0.0000 R=    0.0000 C=    0.0000
 XYZ=   -9.2251    3.8983    1.3881 Q=   -0.8200 A=    0.0000 R=    0.0000 C=    0.0000
 XYZ=   -8.4310    3.2905    1.3811 Q=    0.4100 A=    0.0000 R=    0.0000 C=    0.0000
 XYZ=   -9.9069    3.5486    2.0307 Q=    0.4100 A=    0.0000 R=    0.0000 C=    0.0000
 XYZ=    5.4958   -1.3725    6.4861 Q=   -0.8200 A=    0.0000 R=    0.0000 C=    0.0000
 XYZ=    6.0546   -1.1806    7.2930 Q=    0.4100 A=    0.0000 R=    0.0000 C=    0.0000
 XYZ=    5.6342   -2.3216    6.2030 Q=    0.4100 A=    0.0000 R=    0.0000 C=    0.0000
 XYZ=   -4.2484    8.6128   -1.4143 Q=   -0.8200 A=    0.0000 R=    0.0000 C=    0.0000
 XYZ=   -4.6251    9.3854   -0.9031 Q=    0.4100 A=    0.0000 R=    0.0000 C=    0.0000
 XYZ=   -3.2543    8.5953   -1.3071 Q=    0.4100 A=    0.0000 R=    0.0000 C=    0.0000
 XYZ=    0.2883    7.6569    5.2890 Q=   -0.8200 A=    0.0000 R=    0.0000 C=    0.0000
 XYZ=    1.0543    7.1135    4.9454 Q=    0.4100 A=    0.0000 R=    0.0000 C=    0.0000
 XYZ=   -0.4940    7.0584    5.4615 Q=    0.4100 A=    0.0000 R=    0.0000 C=    0.0000
 XYZ=   -8.6659   -1.6386    2.5278 Q=   -0.8200 A=    0.0000 R=    0.0000 C=    0.0000
 XYZ=   -7.8911   -1.9802    1.9959 Q=    0.4100 A=    0.0000 R=    0.0000 C=    0.0000
 XYZ=   -8.5441   -0.6618    2.7045 Q=    0.4100 A=    0.0000 R=    0.0000 C=    0.0000
 XYZ=    6.5512    5.7410    2.6086 Q=   -0.8200 A=    0.0000 R=    0.0000 C=    0.0000
 XYZ=    5.6736    5.2675    2.6840 Q=    0.4100 A=    0.0000 R=    0.0000 C=    0.0000
 XYZ=    7.2956    5.0848    2.7316 Q=    0.4100 A=    0.0000 R=    0.0000 C=    0.0000
 XYZ=    5.6648   -8.1918   -1.1301 Q=   -0.8200 A=    0.0000 R=    0.0000 C=    0.0000
 XYZ=    6.3821   -8.6696   -0.6229 Q=    0.4100 A=    0.0000 R=    0.0000 C=    0.0000
 XYZ=    6.0825   -7.5497   -1.7730 Q=    0.4100 A=    0.0000 R=    0.0000 C=    0.0000
 XYZ=    4.2600    7.3228   -0.5866 Q=   -0.8200 A=    0.0000 R=    0.0000 C=    0.0000
 XYZ=    3.3526    7.4154   -0.1765 Q=    0.4100 A=    0.0000 R=    0.0000 C=    0.0000
 XYZ=    4.9587    7.4979    0.1070 Q=    0.4100 A=    0.0000 R=    0.0000 C=    0.0000
 XYZ=   -1.4182   -5.9406   -8.0785 Q=   -0.8200 A=    0.0000 R=    0.0000 C=    0.0000
 XYZ=   -0.4673   -5.9140   -7.7701 Q=    0.4100 A=    0.0000 R=    0.0000 C=    0.0000
 XYZ=   -1.9737   -6.4276   -7.4045 Q=    0.4100 A=    0.0000 R=    0.0000 C=    0.0000
 XYZ=    9.6676   -1.7130   -2.7933 Q=   -0.8200 A=    0.0000 R=    0.0000 C=    0.0000
 XYZ=    8.8264   -1.5815   -2.2689 Q=    0.4100 A=    0.0000 R=    0.0000 C=    0.0000
 XYZ=   10.4358   -1.8383   -2.1653 Q=    0.4100 A=    0.0000 R=    0.0000 C=    0.0000
 XYZ=   -2.2160    4.0137    8.2619 Q=   -0.8200 A=    0.0000 R=    0.0000 C=    0.0000
 XYZ=   -1.3108    4.3033    7.9510 Q=    0.4100 A=    0.0000 R=    0.0000 C=    0.0000
 XYZ=   -2.1497    3.1102    8.6854 Q=    0.4100 A=    0.0000 R=    0.0000 C=    0.0000
 XYZ=   -8.2541    4.8116   -1.7834 Q=   -0.8200 A=    0.0000 R=    0.0000 C=    0.0000
 XYZ=   -8.3562    5.5745   -2.4218 Q=    0.4100 A=    0.0000 R=    0.0000 C=    0.0000
 XYZ=   -8.2517    3.9501   -2.2912 Q=    0.4100 A=    0.0000 R=    0.0000 C=    0.0000
 XYZ=   -5.9533   -4.2831    2.9431 Q=   -0.8200 A=    0.0000 R=    0.0000 C=    0.0000
 XYZ=   -6.4313   -4.1144    3.8052 Q=    0.4100 A=    0.0000 R=    0.0000 C=    0.0000
 XYZ=   -5.3420   -5.0675    3.0490 Q=    0.4100 A=    0.0000 R=    0.0000 C=    0.0000
 XYZ=    9.2396   -2.0466    0.6499 Q=   -0.8200 A=    0.0000 R=    0.0000 C=    0.0000
 XYZ=    9.6040   -2.8603    1.1029 Q=    0.4100 A=    0.0000 R=    0.0000 C=    0.0000
 XYZ=    8.9445   -1.3853    1.3396 Q=    0.4100 A=    0.0000 R=    0.0000 C=    0.0000
 XYZ=    3.4641    4.9932   -6.7711 Q=   -0.8200 A=    0.0000 R=    0.0000 C=    0.0000
 XYZ=    4.1177    4.6597   -6.0917 Q=    0.4100 A=    0.0000 R=    0.0000 C=    0.0000
 XYZ=    3.8309    5.8122   -7.2124 Q=    0.4100 A=    0.0000 R=    0.0000 C=    0.0000
 XYZ=   -3.9785   -6.8960    1.4077 Q=   -0.8200 A=    0.0000 R=    0.0000 C=    0.0000
 XYZ=   -3.7620   -7.8686    1.3229 Q=    0.4100 A=    0.0000 R=    0.0000 C=    0.0000
 XYZ=   -4.6406   -6.6393    0.7035 Q=    0.4100 A=    0.0000 R=    0.0000 C=    0.0000
 XYZ=    5.1256    4.3448   -5.0873 Q=   -0.8200 A=    0.0000 R=    0.0000 C=    0.0000
 XYZ=    5.8178    5.0542   -4.9546 Q=    0.4100 A=    0.0000 R=    0.0000 C=    0.0000
 XYZ=    5.5175    3.5915   -5.6157 Q=    0.4100 A=    0.0000 R=    0.0000 C=    0.0000
 XYZ=    5.0622    1.5328   -7.9076 Q=   -0.8200 A=    0.0000 R=    0.0000 C=    0.0000
 XYZ=    5.5046    2.0660   -7.1864 Q=    0.4100 A=    0.0000 R=    0.0000 C=    0.0000
 XYZ=    5.3528    0.5782   -7.8422 Q=    0.4100 A=    0.0000 R=    0.0000 C=    0.0000
 XYZ=   -2.5812    8.6330    2.7354 Q=   -0.8200 A=    0.0000 R=    0.0000 C=    0.0000
 XYZ=   -3.0974    8.2036    3.4766 Q=    0.4100 A=    0.0000 R=    0.0000 C=    0.0000
 XYZ=   -3.0281    9.4872    2.4695 Q=    0.4100 A=    0.0000 R=    0.0000 C=    0.0000
 XYZ=   -4.7275   -6.0813    3.3763 Q=   -0.8200 A=    0.0000 R=    0.0000 C=    0.0000
 XYZ=   -3.8895   -5.8798    3.8835 Q=    0.4100 A=    0.0000 R=    0.0000 C=    0.0000
 XYZ=   -4.4925   -6.4152    2.4634 Q=    0.4100 A=    0.0000 R=    0.0000 C=    0.0000
 XYZ=   -1.0478   -8.8906    3.4855 Q=   -0.8200 A=    0.0000 R=    0.0000 C=    0.0000
 XYZ=   -0.4525   -9.2922    2.7896 Q=    0.4100 A=    0.0000 R=    0.0000 C=    0.0000
 XYZ=   -1.4382   -8.0379    3.1384 Q=    0.4100 A=    0.0000 R=    0.0000 C=    0.0000
 XYZ=    7.9546    3.9048    2.9563 Q=   -0.8200 A=    0.0000 R=    0.0000 C=    0.0000
 XYZ=    7.9569    3.5829    3.9031 Q=    0.4100 A=    0.0000 R=    0.0000 C=    0.0000
 XYZ=    7.2859    3.3816    2.4279 Q=    0.4100 A=    0.0000 R=    0.0000 C=    0.0000
 XYZ=    0.9610   -6.3871   -8.2184 Q=   -0.8200 A=    0.0000 R=    0.0000 C=    0.0000
 XYZ=    0.9357   -7.2704   -7.7502 Q=    0.4100 A=    0.0000 R=    0.0000 C=    0.0000
 XYZ=    1.8962   -6.0329   -8.2118 Q=    0.4100 A=    0.0000 R=    0.0000 C=    0.0000
 XYZ=   -0.3808    8.9654    3.2825 Q=   -0.8200 A=    0.0000 R=    0.0000 C=    0.0000
 XYZ=   -1.3167    8.7975    2.9725 Q=    0.4100 A=    0.0000 R=    0.0000 C=    0.0000
 XYZ=   -0.1645    8.3481    4.0389 Q=    0.4100 A=    0.0000 R=    0.0000 C=    0.0000
 XYZ=    1.8304    2.1598    9.8469 Q=   -0.8200 A=    0.0000 R=    0.0000 C=    0.0000
 XYZ=    2.7584    2.3067    9.5046 Q=    0.4100 A=    0.0000 R=    0.0000 C=    0.0000
 XYZ=    1.2192    1.9642    9.0799 Q=    0.4100 A=    0.0000 R=    0.0000 C=    0.0000
 XYZ=    7.1448    4.1591   -1.9613 Q=   -0.8200 A=    0.0000 R=    0.0000 C=    0.0000
 XYZ=    7.5732    3.4489   -1.4026 Q=    0.4100 A=    0.0000 R=    0.0000 C=    0.0000
 XYZ=    7.2669    5.0485   -1.5209 Q=    0.4100 A=    0.0000 R=    0.0000 C=    0.0000
 XYZ=   -3.7723   -2.9476    7.6513 Q=   -0.8200 A=    0.0000 R=    0.0000 C=    0.0000
 XYZ=   -2.9572   -2.6791    8.1648 Q=    0.4100 A=    0.0000 R=    0.0000 C=    0.0000
 XYZ=   -4.1279   -3.8079    8.0165 Q=    0.4100 A=    0.0000 R=    0.0000 C=    0.0000
 XYZ=    3.7555   -2.4983  -10.1790 Q=   -0.8200 A=    0.0000 R=    0.0000 C=    0.0000
 XYZ=    3.8585   -2.3769   -9.1917 Q=    0.4100 A=    0.0000 R=    0.0000 C=    0.0000
 XYZ=    4.5145   -3.0480  -10.5281 Q=    0.4100 A=    0.0000 R=    0.0000 C=    0.0000
 XYZ=    0.6255   -0.9786  -10.3663 Q=   -0.8200 A=    0.0000 R=    0.0000 C=    0.0000
 XYZ=    1.1454   -1.8202  -10.5128 Q=    0.4100 A=    0.0000 R=    0.0000 C=    0.0000
 XYZ=   -0.2122   -1.1879   -9.8617 Q=    0.4100 A=    0.0000 R=    0.0000 C=    0.0000
 XYZ=   -6.8676   -4.8111    0.8795 Q=   -0.8200 A=    0.0000 R=    0.0000 C=    0.0000
 XYZ=   -6.4544   -5.5113    0.2972 Q=    0.4100 A=    0.0000 R=    0.0000 C=    0.0000
 XYZ=   -6.3560   -4.7457    1.7362 Q=    0.4100 A=    0.0000 R=    0.0000 C=    0.0000
 XYZ=   -7.3103    3.0594    5.7517 Q=   -0.8200 A=    0.0000 R=    0.0000 C=    0.0000
 XYZ=   -7.3229    3.0250    6.7510 Q=    0.4100 A=    0.0000 R=    0.0000 C=    0.0000
 XYZ=   -7.3078    2.1286    5.3862 Q=    0.4100 A=    0.0000 R=    0.0000 C=    0.0000
 XYZ=   -3.9014    7.6306    4.5529 Q=   -0.8200 A=    0.0000 R=    0.0000 C=    0.0000
 XYZ=   -4.4902    6.9345    4.9638 Q=    0.4100 A=    0.0000 R=    0.0000 C=    0.0000
 XYZ=   -4.2105    8.5383    4.8367 Q=    0.4100 A=    0.0000 R=    0.0000 C=    0.0000
 XYZ=    7.3030   -7.4375    2.2560 Q=   -0.8200 A=    0.0000 R=    0.0000 C=    0.0000
 XYZ=    7.8001   -6.5822    2.1096 Q=    0.4100 A=    0.0000 R=    0.0000 C=    0.0000
 XYZ=    6.3245   -7.2455    2.3315 Q=    0.4100 A=    0.0000 R=    0.0000 C=    0.0000
 XYZ=   -3.2050    2.1393  -10.2078 Q=   -0.8200 A=    0.0000 R=    0.0000 C=    0.0000
 XYZ=   -3.3118    2.3107   -9.2284 Q=    0.4100 A=    0.0000 R=    0.0000 C=    0.0000
 XYZ=   -3.0137    1.1692  -10.3574 Q=    0.4100 A=    0.0000 R=    0.0000 C=    0.0000
 XYZ=   -4.1993    5.1093    7.6455 Q=   -0.8200 A=    0.0000 R=    0.0000 C=    0.0000
 XYZ=   -4.5240    5.1922    6.7033 Q=    0.4100 A=    0.0000 R=    0.0000 C=    0.0000
 XYZ=   -3.4721    4.4242    7.6883 Q=    0.4100 A=    0.0000 R=    0.0000 C=    0.0000
 XYZ=    6.2181   -3.2148   -8.6919 Q=   -0.8200 A=    0.0000 R=    0.0000 C=    0.0000
 XYZ=    5.6953   -2.4232   -8.3756 Q=    0.4100 A=    0.0000 R=    0.0000 C=    0.0000
 XYZ=    5.9996   -4.0076   -8.1228 Q=    0.4100 A=    0.0000 R=    0.0000 C=    0.0000
 XYZ=   -1.4499    1.8685    9.3088 Q=   -0.8200 A=    0.0000 R=    0.0000 C=    0.0000
 XYZ=   -1.7797    0.9325    9.4317 Q=    0.4100 A=    0.0000 R=    0.0000 C=    0.0000
 XYZ=   -1.2778    2.2814   10.2032 Q=    0.4100 A=    0.0000 R=    0.0000 C=    0.0000
 XYZ=  -10.2971   -0.3035   -0.6513 Q=   -0.8200 A=    0.0000 R=    0.0000 C=    0.0000
 XYZ=  -10.5703    0.5778   -1.0371 Q=    0.4100 A=    0.0000 R=    0.0000 C=    0.0000
 XYZ=   -9.3103   -0.4234   -0.7598 Q=    0.4100 A=    0.0000 R=    0.0000 C=    0.0000
 XYZ=   -6.8958   -3.6937    4.9185 Q=   -0.8200 A=    0.0000 R=    0.0000 C=    0.0000
 XYZ=   -7.8347   -3.3496    4.9069 Q=    0.4100 A=    0.0000 R=    0.0000 C=    0.0000
 XYZ=   -6.3109   -3.0499    5.4117 Q=    0.4100 A=    0.0000 R=    0.0000 C=    0.0000
 XYZ=    7.9435    1.7564   -5.0132 Q=   -0.8200 A=    0.0000 R=    0.0000 C=    0.0000
 XYZ=    8.0482    2.6471   -4.5708 Q=    0.4100 A=    0.0000 R=    0.0000 C=    0.0000
 XYZ=    8.7292    1.1792   -4.7903 Q=    0.4100 A=    0.0000 R=    0.0000 C=    0.0000
 XYZ=    8.7169   -3.7569   -6.1970 Q=   -0.8200 A=    0.0000 R=    0.0000 C=    0.0000
 XYZ=    8.4456   -3.2322   -5.3900 Q=    0.4100 A=    0.0000 R=    0.0000 C=    0.0000
 XYZ=    8.7654   -3.1487   -6.9892 Q=    0.4100 A=    0.0000 R=    0.0000 C=    0.0000
 XYZ=   -7.9495    5.5777    2.8932 Q=   -0.8200 A=    0.0000 R=    0.0000 C=    0.0000
 XYZ=   -8.4144    5.5519    3.7782 Q=    0.4100 A=    0.0000 R=    0.0000 C=    0.0000
 XYZ=   -8.4968    5.0876    2.2148 Q=    0.4100 A=    0.0000 R=    0.0000 C=    0.0000
 XYZ=   -2.0559   -0.3674    9.8011 Q=   -0.8200 A=    0.0000 R=    0.0000 C=    0.0000
 XYZ=   -1.8141   -1.2167    9.3318 Q=    0.4100 A=    0.0000 R=    0.0000 C=    0.0000
 XYZ=   -2.1903   -0.5513   10.7748 Q=    0.4100 A=    0.0000 R=    0.0000 C=    0.0000
 XYZ=    6.3277    2.7830   -6.4737 Q=   -0.8200 A=    0.0000 R=    0.0000 C=    0.0000
 XYZ=    6.6950    3.6007   -6.9169 Q=    0.4100 A=    0.0000 R=    0.0000 C=    0.0000
 XYZ=    7.0688    2.2889   -6.0192 Q=    0.4100 A=    0.0000 R=    0.0000 C=    0.0000
 XYZ=    5.1703    1.6410    7.6866 Q=   -0.8200 A=    0.0000 R=    0.0000 C=    0.0000
 XYZ=    5.8959    2.1406    7.2134 Q=    0.4100 A=    0.0000 R=    0.0000 C=    0.0000
 XYZ=    4.9073    2.1387    8.5131 Q=    0.4100 A=    0.0000 R=    0.0000 C=    0.0000
 XYZ=   -5.8256   -6.5420   -0.3964 Q=   -0.8200 A=    0.0000 R=    0.0000 C=    0.0000
 XYZ=   -5.9740   -6.2908   -1.3530 Q=    0.4100 A=    0.0000 R=    0.0000 C=    0.0000
 XYZ=   -5.9567   -7.5273   -0.2864 Q=    0.4100 A=    0.0000 R=    0.0000 C=    0.0000
 XYZ=   -7.1818    3.4804   -7.0306 Q=   -0.8200 A=    0.0000 R=    0.0000 C=    0.0000
 XYZ=   -6.7387    4.0308   -7.7382 Q=    0.4100 A=    0.0000 R=    0.0000 C=    0.0000
 XYZ=   -6.7521    2.5783   -6.9921 Q=    0.4100 A=    0.0000 R=    0.0000 C=    0.0000
 XYZ=    5.1364    4.7834    6.3346 Q=   -0.8200 A=    0.0000 R=    0.0000 C=    0.0000
 XYZ=    5.7122    5.6011    6.3353 Q=    0.4100 A=    0.0000 R=    0.0000 C=    0.0000
 XYZ=    5.7148    3.9687    6.2941 Q=    0.4100 A=    0.0000 R=    0.0000 C=    0.0000
 XYZ=  -10.1848    0.8893    3.1091 Q=   -0.8200 A=    0.0000 R=    0.0000 C=    0.0000
 XYZ=   -9.1857    0.9062    3.0702 Q=    0.4100 A=    0.0000 R=    0.0000 C=    0.0000
 XYZ=  -10.5308    0.1880    2.4857 Q=    0.4100 A=    0.0000 R=    0.0000 C=    0.0000
 XYZ=   -6.6389   -6.2800   -2.6532 Q=   -0.8200 A=    0.0000 R=    0.0000 C=    0.0000
 XYZ=   -7.5659   -6.3017   -2.2786 Q=    0.4100 A=    0.0000 R=    0.0000 C=    0.0000
 XYZ=   -6.6098   -5.6568   -3.4347 Q=    0.4100 A=    0.0000 R=    0.0000 C=    0.0000
 XYZ=    0.1376   -5.3375    8.6750 Q=   -0.8200 A=    0.0000 R=    0.0000 C=    0.0000
 XYZ=    0.4824   -4.9014    7.8437 Q=    0.4100 A=    0.0000 R=    0.0000 C=    0.0000
 XYZ=    0.9071   -5.6049    9.2549 Q=    0.4100 A=    0.0000 R=    0.0000 C=    0.0000
 XYZ=    6.0380   -5.2872   -7.6551 Q=   -0.8200 A=    0.0000 R=    0.0000 C=    0.0000
 XYZ=    6.8019   -5.7900   -7.2504 Q=    0.4100 A=    0.0000 R=    0.0000 C=    0.0000
 XYZ=    5.7335   -5.7548   -8.4850 Q=    0.4100 A=    0.0000 R=    0.0000 C=    0.0000
 XYZ=    2.0145    0.9123  -10.1178 Q=   -0.8200 A=    0.0000 R=    0.0000 C=    0.0000
 XYZ=    1.4952    1.6596  -10.5325 Q=    0.4100 A=    0.0000 R=    0.0000 C=    0.0000
 XYZ=    1.4972    0.0605  -10.2013 Q=    0.4100 A=    0.0000 R=    0.0000 C=    0.0000
 XYZ=    8.4380    2.7648    4.9901 Q=   -0.8200 A=    0.0000 R=    0.0000 C=    0.0000
 XYZ=    7.7764    2.1518    4.5582 Q=    0.4100 A=    0.0000 R=    0.0000 C=    0.0000
 XYZ=    9.1955    2.2286    5.3625 Q=    0.4100 A=    0.0000 R=    0.0000 C=    0.0000
 XYZ=   -2.8276   -7.4766   -6.8943 Q=   -0.8200 A=    0.0000 R=    0.0000 C=    0.0000
 XYZ=   -3.2555   -7.9975   -7.6331 Q=    0.4100 A=    0.0000 R=    0.0000 C=    0.0000
 XYZ=   -3.5275   -7.1895   -6.2403 Q=    0.4100 A=    0.0000 R=    0.0000 C=    0.0000
 XYZ=    0.5092   -5.1087  -10.2897 Q=   -0.8200 A=    0.0000 R=    0.0000 C=    0.0000
 XYZ=    1.0692   -4.3162  -10.5316 Q=    0.4100 A=    0.0000 R=    0.0000 C=    0.0000
 XYZ=    0.7513   -5.4198   -9.3706 Q=    0.4100 A=    0.0000 R=    0.0000 C=    0.0000
 XYZ=   -6.1607   -0.5414   -8.5871 Q=   -0.8200 A=    0.0000 R=    0.0000 C=    0.0000
 XYZ=   -6.7349   -1.3491   -8.7211 Q=    0.4100 A=    0.0000 R=    0.0000 C=    0.0000
 XYZ=   -5.2999   -0.6585   -9.0825 Q=    0.4100 A=    0.0000 R=    0.0000 C=    0.0000
 XYZ=    8.0752   -6.2402   -4.1811 Q=   -0.8200 A=    0.0000 R=    0.0000 C=    0.0000
 XYZ=    8.1224   -6.1535   -5.1763 Q=    0.4100 A=    0.0000 R=    0.0000 C=    0.0000
 XYZ=    8.9430   -6.5982   -3.8363 Q=    0.4100 A=    0.0000 R=    0.0000 C=    0.0000
 XYZ=   -2.9146   -0.1896  -10.4913 Q=   -0.8200 A=    0.0000 R=    0.0000 C=    0.0000
 XYZ=   -2.4755   -1.0574  -10.2586 Q=    0.4100 A=    0.0000 R=    0.0000 C=    0.0000
 XYZ=   -3.8017   -0.3684  -10.9168 Q=    0.4100 A=    0.0000 R=    0.0000 C=    0.0000
 XYZ=   10.1409   -4.0093    1.9844 Q=   -0.8200 A=    0.0000 R=    0.0000 C=    0.0000
 XYZ=    9.2168   -4.3705    1.8594 Q=    0.4100 A=    0.0000 R=    0.0000 C=    0.0000
 XYZ=   10.7802   -4.5247    1.4138 Q=    0.4100 A=    0.0000 R=    0.0000 C=    0.0000
 XYZ=   -7.9248   -0.9106    6.3779 Q=   -0.8200 A=    0.0000 R=    0.0000 C=    0.0000
 XYZ=   -8.5617   -1.5596    5.9618 Q=    0.4100 A=    0.0000 R=    0.0000 C=    0.0000
 XYZ=   -7.0124   -1.3179    6.4177 Q=    0.4100 A=    0.0000 R=    0.0000 C=    0.0000
 XYZ=   -0.6618   -7.7574    5.7379 Q=   -0.8200 A=    0.0000 R=    0.0000 C=    0.0000
 XYZ=   -1.6131   -7.5071    5.9179 Q=    0.4100 A=    0.0000 R=    0.0000 C=    0.0000
 XYZ=   -0.6235   -8.3827    4.9584 Q=    0.4100 A=    0.0000 R=    0.0000 C=    0.0000
 XYZ=    3.3417   -8.7728   -6.9273 Q=   -0.8200 A=    0.0000 R=    0.0000 C=    0.0000
 XYZ=    4.2304   -9.2311   -6.9159 Q=    0.4100 A=    0.0000 R=    0.0000 C=    0.0000
 XYZ=    3.4297   -7.8863   -7.3815 Q=    0.4100 A=    0.0000 R=    0.0000 C=    0.0000
 XYZ=   10.4078    1.1965    1.5063 Q=   -0.8200 A=    0.0000 R=    0.0000 C=    0.0000
 XYZ=    9.7740    0.4229    1.5137 Q=    0.4100 A=    0.0000 R=    0.0000 C=    0.0000
 XYZ=    9.8957    2.0456    1.3770 Q=    0.4100 A=    0.0000 R=    0.0000 C=    0.0000
 XYZ=   -2.2433    9.0566   -5.1101 Q=   -0.8200 A=    0.0000 R=    0.0000 C=    0.0000
 XYZ=   -3.0010    8.7849   -4.5166 Q=    0.4100 A=    0.0000 R=    0.0000 C=    0.0000
 XYZ=   -1.9065    8.2571   -5.6076 Q=    0.4100 A=    0.0000 R=    0.0000 C=    0.0000
 XYZ=   -4.8674   -6.9889   -5.7351 Q=   -0.8200 A=    0.0000 R=    0.0000 C=    0.0000
 XYZ=   -5.4686   -6.1902   -5.7115 Q=    0.4100 A=    0.0000 R=    0.0000 C=    0.0000
 XYZ=   -5.1255   -7.6220   -5.0053 Q=    0.4100 A=    0.0000 R=    0.0000 C=    0.0000
 XYZ=    9.6555    0.3455   -4.1876 Q=   -0.8200 A=    0.0000 R=    0.0000 C=    0.0000
 XYZ=    9.9249    1.1328   -3.6329 Q=    0.4100 A=    0.0000 R=    0.0000 C=    0.0000
 XYZ=    9.7540   -0.4912   -3.6487 Q=    0.4100 A=    0.0000 R=    0.0000 C=    0.0000
 XYZ=   -3.5634    5.2390   -8.4660 Q=   -0.8200 A=    0.0000 R=    0.0000 C=    0.0000
 XYZ=   -3.2688    6.0364   -8.9928 Q=    0.4100 A=    0.0000 R=    0.0000 C=    0.0000
 XYZ=   -4.5604    5.1677   -8.4989 Q=    0.4100 A=    0.0000 R=    0.0000 C=    0.0000
 XYZ=  -10.3628    3.8599   -0.7081 Q=   -0.8200 A=    0.0000 R=    0.0000 C=    0.0000
 XYZ=   -9.6542    4.3547   -1.2113 Q=    0.4100 A=    0.0000 R=    0.0000 C=    0.0000
 XYZ=  -10.2377    4.0053    0.2734 Q=    0.4100 A=    0.0000 R=    0.0000 C=    0.0000
 XYZ=    0.8696    3.1066  -10.9680 Q=   -0.8200 A=    0.0000 R=    0.0000 C=    0.0000
 XYZ=    0.4120    3.3823  -10.1226 Q=    0.4100 A=    0.0000 R=    0.0000 C=    0.0000
 XYZ=    1.5960    3.7597  -11.1821 Q=    0.4100 A=    0.0000 R=    0.0000 C=    0.0000
 XYZ=    8.3880    3.9804   -3.9663 Q=   -0.8200 A=    0.0000 R=    0.0000 C=    0.0000
 XYZ=    7.8842    4.0270   -3.1036 Q=    0.4100 A=    0.0000 R=    0.0000 C=    0.0000
 XYZ=    9.3523    3.7928   -3.7793 Q=    0.4100 A=    0.0000 R=    0.0000 C=    0.0000
 XYZ=    0.9897   -8.5459   -7.4372 Q=   -0.8200 A=    0.0000 R=    0.0000 C=    0.0000
 XYZ=    0.2775   -9.0573   -6.9562 Q=    0.4100 A=    0.0000 R=    0.0000 C=    0.0000
 XYZ=    1.8811   -8.7598   -7.0377 Q=    0.4100 A=    0.0000 R=    0.0000 C=    0.0000
 XYZ=   -1.6467   -9.5981   -6.1869 Q=   -0.8200 A=    0.0000 R=    0.0000 C=    0.0000
 XYZ=   -1.9662   -8.6587   -6.3113 Q=    0.4100 A=    0.0000 R=    0.0000 C=    0.0000
 XYZ=   -1.8631  -10.1345   -7.0027 Q=    0.4100 A=    0.0000 R=    0.0000 C=    0.0000
 XYZ=    4.3787    5.1519    8.5976 Q=   -0.8200 A=    0.0000 R=    0.0000 C=    0.0000
 XYZ=    5.1139    5.7401    8.9345 Q=    0.4100 A=    0.0000 R=    0.0000 C=    0.0000
 XYZ=    4.5503    4.9192    7.6403 Q=    0.4100 A=    0.0000 R=    0.0000 C=    0.0000
 XYZ=    1.6614   -3.0785  -10.8686 Q=   -0.8200 A=    0.0000 R=    0.0000 C=    0.0000
 XYZ=    2.5024   -2.7133  -10.4694 Q=    0.4100 A=    0.0000 R=    0.0000 C=    0.0000
 XYZ=    1.5791   -2.7669  -11.8153 Q=    0.4100 A=    0.0000 R=    0.0000 C=    0.0000
 XYZ=    6.7151    3.0330    6.6106 Q=   -0.8200 A=    0.0000 R=    0.0000 C=    0.0000
 XYZ=    7.4174    3.0836    5.9004 Q=    0.4100 A=    0.0000 R=    0.0000 C=    0.0000
 XYZ=    7.1362    3.1749    7.5065 Q=    0.4100 A=    0.0000 R=    0.0000 C=    0.0000
 XYZ=    0.6066   11.0976    0.2609 Q=   -0.8200 A=    0.0000 R=    0.0000 C=    0.0000
 XYZ=    1.5550   11.4134    0.2286 Q=    0.4100 A=    0.0000 R=    0.0000 C=    0.0000
 XYZ=    0.5331   10.2155   -0.2043 Q=    0.4100 A=    0.0000 R=    0.0000 C=    0.0000
 XYZ=   -7.9073    8.0686    2.6399 Q=   -0.8200 A=    0.0000 R=    0.0000 C=    0.0000
 XYZ=   -7.8938    7.0690    2.6120 Q=    0.4100 A=    0.0000 R=    0.0000 C=    0.0000
 XYZ=   -7.7859    8.3773    3.5833 Q=    0.4100 A=    0.0000 R=    0.0000 C=    0.0000
 XYZ=    6.2215   -0.1890    8.5765 Q=   -0.8200 A=    0.0000 R=    0.0000 C=    0.0000
 XYZ=    5.7478    0.6306    8.2543 Q=    0.4100 A=    0.0000 R=    0.0000 C=    0.0000
 XYZ=    7.0807    0.0736    9.0157 Q=    0.4100 A=    0.0000 R=    0.0000 C=    0.0000
 XYZ=   11.1299   -1.7240   -0.6021 Q=   -0.8200 A=    0.0000 R=    0.0000 C=    0.0000
 XYZ=   11.9585   -1.8068   -0.0483 Q=    0.4100 A=    0.0000 R=    0.0000 C=    0.0000
 XYZ=   10.3399   -2.0225   -0.0665 Q=    0.4100 A=    0.0000 R=    0.0000 C=    0.0000
 XYZ=   10.2189    1.8434   -2.3146 Q=   -0.8200 A=    0.0000 R=    0.0000 C=    0.0000
 XYZ=    9.4974    2.1959   -1.7185 Q=    0.4100 A=    0.0000 R=    0.0000 C=    0.0000
 XYZ=   10.7849    1.1952   -1.8053 Q=    0.4100 A=    0.0000 R=    0.0000 C=    0.0000
 XYZ=   -8.3663    5.1150    5.2085 Q=   -0.8200 A=    0.0000 R=    0.0000 C=    0.0000
 XYZ=   -8.0382    4.2284    5.5346 Q=    0.4100 A=    0.0000 R=    0.0000 C=    0.0000
 XYZ=   -7.7832    5.8408    5.5735 Q=    0.4100 A=    0.0000 R=    0.0000 C=    0.0000
 XYZ=    1.0612    4.3495    9.8508 Q=   -0.8200 A=    0.0000 R=    0.0000 C=    0.0000
 XYZ=    0.2666    4.5144   10.4351 Q=    0.4100 A=    0.0000 R=    0.0000 C=    0.0000
 XYZ=    1.3480    3.3956    9.9396 Q=    0.4100 A=    0.0000 R=    0.0000 C=    0.0000
 XYZ=    9.3434    3.3346    1.2592 Q=   -0.8200 A=    0.0000 R=    0.0000 C=    0.0000
 XYZ=    8.7996    3.6550    2.0349 Q=    0.4100 A=    0.0000 R=    0.0000 C=    0.0000
 XYZ=    9.8799    4.0944    0.8918 Q=    0.4100 A=    0.0000 R=    0.0000 C=    0.0000
 XYZ=    6.9530    7.1597    0.7767 Q=   -0.8200 A=    0.0000 R=    0.0000 C=    0.0000
 XYZ=    7.4000    8.0234    1.0098 Q=    0.4100 A=    0.0000 R=    0.0000 C=    0.0000
 XYZ=    6.6975    6.6795    1.6159 Q=    0.4100 A=    0.0000 R=    0.0000 C=    0.0000
 XYZ=    7.5254   -8.8276    0.2991 Q=   -0.8200 A=    0.0000 R=    0.0000 C=    0.0000
 XYZ=    7.4088   -8.1043    0.9797 Q=    0.4100 A=    0.0000 R=    0.0000 C=    0.0000
 XYZ=    8.2250   -9.4700    0.6120 Q=    0.4100 A=    0.0000 R=    0.0000 C=    0.0000
 XYZ=   -3.6627   -9.1021    1.0309 Q=   -0.8200 A=    0.0000 R=    0.0000 C=    0.0000
 XYZ=   -4.5586   -9.0764    0.5874 Q=    0.4100 A=    0.0000 R=    0.0000 C=    0.0000
 XYZ=   -3.0333   -9.6495    0.4794 Q=    0.4100 A=    0.0000 R=    0.0000 C=    0.0000
 XYZ=    8.3069   -2.3257   -8.0833 Q=   -0.8200 A=    0.0000 R=    0.0000 C=    0.0000
 XYZ=    7.4652   -2.7729   -8.3859 Q=    0.4100 A=    0.0000 R=    0.0000 C=    0.0000
 XYZ=    8.2537   -1.3468   -8.2806 Q=    0.4100 A=    0.0000 R=    0.0000 C=    0.0000
 XYZ=   -8.9520   -2.7066    4.9185 Q=   -0.8200 A=    0.0000 R=    0.0000 C=    0.0000
 XYZ=   -8.8286   -2.4130    3.9705 Q=    0.4100 A=    0.0000 R=    0.0000 C=    0.0000
 XYZ=   -9.6588   -3.4128    4.9593 Q=    0.4100 A=    0.0000 R=    0.0000 C=    0.0000
 XYZ=    0.6618   10.8696    2.5781 Q=   -0.8200 A=    0.0000 R=    0.0000 C=    0.0000
 XYZ=    0.2321   10.0593    2.9766 Q=    0.4100 A=    0.0000 R=    0.0000 C=    0.0000
 XYZ=    0.4479   10.9144    1.6023 Q=    0.4100 A=    0.0000 R=    0.0000 C=    0.0000
 XYZ=  -10.8410   -0.9681    1.5556 Q=   -0.8200 A=    0.0000 R=    0.0000 C=    0.0000
 XYZ=  -10.6786   -0.4717    0.7028 Q=    0.4100 A=    0.0000 R=    0.0000 C=    0.0000
 XYZ=  -10.0129   -1.4650    1.8148 Q=    0.4100 A=    0.0000 R=    0.0000 C=    0.0000
 XYZ=   -1.1186    5.0904  -10.7759 Q=   -0.8200 A=    0.0000 R=    0.0000 C=    0.0000
 XYZ=   -1.7465    4.5040  -11.2878 Q=    0.4100 A=    0.0000 R=    0.0000 C=    0.0000
 XYZ=   -0.6897    4.5608  -10.0441 Q=    0.4100 A=    0.0000 R=    0.0000 C=    0.0000
 XYZ=   -2.1205  -10.2670   -0.2895 Q=   -0.8200 A=    0.0000 R=    0.0000 C=    0.0000
 XYZ=   -1.3665  -10.8963   -0.1014 Q=    0.4100 A=    0.0000 R=    0.0000 C=    0.0000
 XYZ=   -2.8470  -10.7531   -0.7752 Q=    0.4100 A=    0.0000 R=    0.0000 C=    0.0000
 XYZ=    8.1406   -6.0100   -6.6050 Q=   -0.8200 A=    0.0000 R=    0.0000 C=    0.0000
 XYZ=    8.3505   -5.0339   -6.5481 Q=    0.4100 A=    0.0000 R=    0.0000 C=    0.0000
 XYZ=    8.8124   -6.4616   -7.1923 Q=    0.4100 A=    0.0000 R=    0.0000 C=    0.0000
 XYZ=   -2.8772    4.9677   10.2745 Q=   -0.8200 A=    0.0000 R=    0.0000 C=    0.0000
 XYZ=   -2.9840    5.9581   10.1854 Q=    0.4100 A=    0.0000 R=    0.0000 C=    0.0000
 XYZ=   -2.6126    4.5803    9.3914 Q=    0.4100 A=    0.0000 R=    0.0000 C=    0.0000
 XYZ=   -6.5871   -4.1430   -7.6877 Q=   -0.8200 A=    0.0000 R=    0.0000 C=    0.0000
 XYZ=   -6.1090   -4.5188   -8.4816 Q=    0.4100 A=    0.0000 R=    0.0000 C=    0.0000
 XYZ=   -6.9825   -3.2559   -7.9259 Q=    0.4100 A=    0.0000 R=    0.0000 C=    0.0000
 XYZ=   -7.0963    8.7720    0.5710 Q=   -0.8200 A=    0.0000 R=    0.0000 C=    0.0000
 XYZ=   -7.8202    9.0937   -0.0392 Q=    0.4100 A=    0.0000 R=    0.0000 C=    0.0000
 XYZ=   -7.4929    8.5159    1.4526 Q=    0.4100 A=    0.0000 R=    0.0000 C=    0.0000
 XYZ=    4.1537    2.8238    9.3567 Q=   -0.8200 A=    0.0000 R=    0.0000 C=    0.0000
 XYZ=    4.7123    2.6691   10.1716 Q=    0.4100 A=    0.0000 R=    0.0000 C=    0.0000
 XYZ=    4.2382    3.7784    9.0710 Q=    0.4100 A=    0.0000 R=    0.0000 C=    0.0000
 XYZ=   -6.0018   -7.1491    5.0226 Q=   -0.8200 A=    0.0000 R=    0.0000 C=    0.0000
 XYZ=   -5.4400   -6.6704    4.3479 Q=    0.4100 A=    0.0000 R=    0.0000 C=    0.0000
 XYZ=   -6.7265   -6.5401    5.3452 Q=    0.4100 A=    0.0000 R=    0.0000 C=    0.0000
 XYZ=   -5.7830   -8.1957   -3.8949 Q=   -0.8200 A=    0.0000 R=    0.0000 C=    0.0000
 XYZ=   -6.1045   -7.4220   -3.3490 Q=    0.4100 A=    0.0000 R=    0.0000 C=    0.0000
 XYZ=   -6.5250   -8.8570   -4.0050 Q=    0.4100 A=    0.0000 R=    0.0000 C=    0.0000
 XYZ=    9.7324   -5.7291   -1.1285 Q=   -0.8200 A=    0.0000 R=    0.0000 C=    0.0000
 XYZ=   10.1792   -5.5001   -1.9933 Q=    0.4100 A=    0.0000 R=    0.0000 C=    0.0000
 XYZ=    9.4120   -6.6759   -1.1594 Q=    0.4100 A=    0.0000 R=    0.0000 C=    0.0000
 XYZ=   -1.7292   -4.2254  -10.6978 Q=   -0.8200 A=    0.0000 R=    0.0000 C=    0.0000
 XYZ=   -1.0361   -4.8070  -10.2718 Q=    0.4100 A=    0.0000 R=    0.0000 C=    0.0000
 XYZ=   -1.6185   -4.2483  -11.6914 Q=    0.4100 A=    0.0000 R=    0.0000 C=    0.0000
 XYZ=   -0.9706   -0.0669  -11.9941 Q=   -0.8200 A=    0.0000 R=    0.0000 C=    0.0000
 XYZ=   -0.3442   -0.5506  -11.3827 Q=    0.4100 A=    0.0000 R=    0.0000 C=    0.0000
 XYZ=   -1.8683    0.0083  -11.5600 Q=    0.4100 A=    0.0000 R=    0.0000 C=    0.0000
 XYZ=    4.5162   -1.5105    9.4894 Q=   -0.8200 A=    0.0000 R=    0.0000 C=    0.0000
 XYZ=    5.1942   -0.9044    9.0734 Q=    0.4100 A=    0.0000 R=    0.0000 C=    0.0000
 XYZ=    4.9831   -2.2539    9.9684 Q=    0.4100 A=    0.0000 R=    0.0000 C=    0.0000
 XYZ=   -5.4313   10.3143    0.0088 Q=   -0.8200 A=    0.0000 R=    0.0000 C=    0.0000
 XYZ=   -5.9039   10.9899   -0.5572 Q=    0.4100 A=    0.0000 R=    0.0000 C=    0.0000
 XYZ=   -6.0924    9.6490    0.3556 Q=    0.4100 A=    0.0000 R=    0.0000 C=    0.0000
 XYZ=   -3.8756   10.4246    1.7950 Q=   -0.8200 A=    0.0000 R=    0.0000 C=    0.0000
 XYZ=   -4.3147   10.9654    2.5125 Q=    0.4100 A=    0.0000 R=    0.0000 C=    0.0000
 XYZ=   -4.4715   10.3891    0.9927 Q=    0.4100 A=    0.0000 R=    0.0000 C=    0.0000
 XYZ=   -2.2732   -7.1170   -9.9552 Q=   -0.8200 A=    0.0000 R=    0.0000 C=    0.0000
 XYZ=   -2.9403   -6.5598  -10.4497 Q=    0.4100 A=    0.0000 R=    0.0000 C=    0.0000
 XYZ=   -1.9346   -6.6076   -9.1641 Q=    0.4100 A=    0.0000 R=    0.0000 C=    0.0000
 XYZ=   -2.8284   -7.3012    6.4121 Q=   -0.8200 A=    0.0000 R=    0.0000 C=    0.0000
 XYZ=   -2.3660   -7.2035    7.2934 Q=    0.4100 A=    0.0000 R=    0.0000 C=    0.0000
 XYZ=   -3.6701   -7.8273    6.5338 Q=    0.4100 A=    0.0000 R=    0.0000 C=    0.0000
 XYZ=   -6.0751    4.4521    8.7270 Q=   -0.8200 A=    0.0000 R=    0.0000 C=    0.0000
 XYZ=   -6.8262    5.1096    8.7873 Q=    0.4100 A=    0.0000 R=    0.0000 C=    0.0000
 XYZ=   -5.3248    4.8506    8.1994 Q=    0.4100 A=    0.0000 R=    0.0000 C=    0.0000
 XYZ=  -11.1628    1.7090   -1.4650 Q=   -0.8200 A=    0.0000 R=    0.0000 C=    0.0000
 XYZ=  -12.1449    1.6084   -1.3055 Q=    0.4100 A=    0.0000 R=    0.0000 C=    0.0000
 XYZ=  -10.8536    2.5863   -1.0977 Q=    0.4100 A=    0.0000 R=    0.0000 C=    0.0000
 XYZ=    7.5829    6.1926   -1.2190 Q=   -0.8200 A=    0.0000 R=    0.0000 C=    0.0000
 XYZ=    6.8114    6.5081   -1.7714 Q=    0.4100 A=    0.0000 R=    0.0000 C=    0.0000
 XYZ=    7.4683    6.5063   -0.2764 Q=    0.4100 A=    0.0000 R=    0.0000 C=    0.0000
 XYZ=    0.1445    9.6147    6.8569 Q=   -0.8200 A=    0.0000 R=    0.0000 C=    0.0000
 XYZ=   -0.0294    8.8452    6.2422 Q=    0.4100 A=    0.0000 R=    0.0000 C=    0.0000
 XYZ=    0.8181   10.2267    6.4423 Q=    0.4100 A=    0.0000 R=    0.0000 C=    0.0000
 XYZ=   -5.0224   10.1166   -4.9250 Q=   -0.8200 A=    0.0000 R=    0.0000 C=    0.0000
 XYZ=   -4.6728    9.3119   -4.4451 Q=    0.4100 A=    0.0000 R=    0.0000 C=    0.0000
 XYZ=   -4.3846   10.3751   -5.6507 Q=    0.4100 A=    0.0000 R=    0.0000 C=    0.0000
 XYZ=   -0.8681   -3.8097   10.2287 Q=   -0.8200 A=    0.0000 R=    0.0000 C=    0.0000
 XYZ=   -0.5848   -4.5462    9.6145 Q=    0.4100 A=    0.0000 R=    0.0000 C=    0.0000
 XYZ=   -1.6669   -4.1027   10.7541 Q=    0.4100 A=    0.0000 R=    0.0000 C=    0.0000
 XYZ=   -8.3798   -6.4289    1.8860 Q=   -0.8200 A=    0.0000 R=    0.0000 C=    0.0000
 XYZ=   -8.9037   -6.7794    1.1097 Q=    0.4100 A=    0.0000 R=    0.0000 C=    0.0000
 XYZ=   -7.8403   -5.6389    1.5945 Q=    0.4100 A=    0.0000 R=    0.0000 C=    0.0000
 XYZ=  -10.9900    2.9931    2.7157 Q=   -0.8200 A=    0.0000 R=    0.0000 C=    0.0000
 XYZ=  -11.9860    2.9744    2.6271 Q=    0.4100 A=    0.0000 R=    0.0000 C=    0.0000
 XYZ=  -10.6502    2.0628    2.8537 Q=    0.4100 A=    0.0000 R=    0.0000 C=    0.0000
 XYZ=   -5.8654    4.4916   -8.7760 Q=   -0.8200 A=    0.0000 R=    0.0000 C=    0.0000
 XYZ=   -6.4869    5.1309   -9.2287 Q=    0.4100 A=    0.0000 R=    0.0000 C=    0.0000
 XYZ=   -5.7023    3.7061   -9.3730 Q=    0.4100 A=    0.0000 R=    0.0000 C=    0.0000
 XYZ=   -7.6952   -5.7327    5.5221 Q=   -0.8200 A=    0.0000 R=    0.0000 C=    0.0000
 XYZ=   -8.4364   -5.9508    4.8872 Q=    0.4100 A=    0.0000 R=    0.0000 C=    0.0000
 XYZ=   -7.2790   -4.8615    5.2618 Q=    0.4100 A=    0.0000 R=    0.0000 C=    0.0000
 XYZ=   -3.6621    6.9628    9.1362 Q=   -0.8200 A=    0.0000 R=    0.0000 C=    0.0000
 XYZ=   -3.6848    6.2628    8.4224 Q=    0.4100 A=    0.0000 R=    0.0000 C=    0.0000
 XYZ=   -4.5964    7.2372    9.3638 Q=    0.4100 A=    0.0000 R=    0.0000 C=    0.0000
 XYZ=    7.6740    6.8917    4.5550 Q=   -0.8200 A=    0.0000 R=    0.0000 C=    0.0000
 XYZ=    8.4377    6.2692    4.7257 Q=    0.4100 A=    0.0000 R=    0.0000 C=    0.0000
 XYZ=    7.1520    6.5702    3.7649 Q=    0.4100 A=    0.0000 R=    0.0000 C=    0.0000
 XYZ=  -10.4664    1.4574   -3.5926 Q=   -0.8200 A=    0.0000 R=    0.0000 C=    0.0000
 XYZ=  -10.8136    1.4743   -2.6549 Q=    0.4100 A=    0.0000 R=    0.0000 C=    0.0000
 XYZ=  -11.2239    1.2971   -4.2256 Q=    0.4100 A=    0.0000 R=    0.0000 C=    0.0000
 XYZ=    3.1009   -1.1366  -12.0491 Q=   -0.8200 A=    0.0000 R=    0.0000 C=    0.0000
 XYZ=    3.2052   -0.1420  -12.0447 Q=    0.4100 A=    0.0000 R=    0.0000 C=    0.0000
 XYZ=    3.3736   -1.5042  -11.1600 Q=    0.4100 A=    0.0000 R=    0.0000 C=    0.0000
 XYZ=   -5.6316    2.7502  -10.4148 Q=   -0.8200 A=    0.0000 R=    0.0000 C=    0.0000
 XYZ=   -6.1390    1.8885  -10.4061 Q=    0.4100 A=    0.0000 R=    0.0000 C=    0.0000
 XYZ=   -4.6504    2.5589  -10.4401 Q=    0.4100 A=    0.0000 R=    0.0000 C=    0.0000
 XYZ=   -1.8032   -6.6230    8.5008 Q=   -0.8200 A=    0.0000 R=    0.0000 C=    0.0000
 XYZ=   -0.9367   -6.1237    8.5001 Q=    0.4100 A=    0.0000 R=    0.0000 C=    0.0000
 XYZ=   -2.5614   -5.9746    8.5695 Q=    0.4100 A=    0.0000 R=    0.0000 C=    0.0000
 XYZ=   -3.0585  -10.4461    2.8937 Q=   -0.8200 A=    0.0000 R=    0.0000 C=    0.0000
 XYZ=   -2.3178   -9.8828    3.2598 Q=    0.4100 A=    0.0000 R=    0.0000 C=    0.0000
 XYZ=   -3.5253   -9.9487    2.1624 Q=    0.4100 A=    0.0000 R=    0.0000 C=    0.0000
 XYZ=   -6.9139    6.7562    6.0720 Q=   -0.8200 A=    0.0000 R=    0.0000 C=    0.0000
 XYZ=   -6.8498    7.7040    5.7598 Q=    0.4100 A=    0.0000 R=    0.0000 C=    0.0000
 XYZ=   -7.2426    6.7378    7.0163 Q=    0.4100 A=    0.0000 R=    0.0000 C=    0.0000
 XYZ=    4.9850   -5.8137   -9.6971 Q=   -0.8200 A=    0.0000 R=    0.0000 C=    0.0000
 XYZ=    5.2784   -6.5691  -10.2830 Q=    0.4100 A=    0.0000 R=    0.0000 C=    0.0000
 XYZ=    5.0577   -4.9532  -10.2013 Q=    0.4100 A=    0.0000 R=    0.0000 C=    0.0000
 XYZ=    9.3030   -8.0099   -1.1510 Q=   -0.8200 A=    0.0000 R=    0.0000 C=    0.0000
 XYZ=    8.5026   -8.2951   -0.6237 Q=    0.4100 A=    0.0000 R=    0.0000 C=    0.0000
 XYZ=   10.0955   -8.5533   -0.8739 Q=    0.4100 A=    0.0000 R=    0.0000 C=    0.0000
 XYZ=    7.0210    5.5274   -5.1963 Q=   -0.8200 A=    0.0000 R=    0.0000 C=    0.0000
 XYZ=    7.7535    5.0867   -4.6774 Q=    0.4100 A=    0.0000 R=    0.0000 C=    0.0000
 XYZ=    7.0752    5.2457   -6.1543 Q=    0.4100 A=    0.0000 R=    0.0000 C=    0.0000
 XYZ=  -10.2615    3.3859   -4.9530 Q=   -0.8200 A=    0.0000 R=    0.0000 C=    0.0000
 XYZ=   -9.7326    2.9868   -5.7020 Q=    0.4100 A=    0.0000 R=    0.0000 C=    0.0000
 XYZ=  -10.2806    2.7491   -4.1821 Q=    0.4100 A=    0.0000 R=    0.0000 C=    0.0000
 XYZ=   11.2502    0.6607   -0.6001 Q=   -0.8200 A=    0.0000 R=    0.0000 C=    0.0000
 XYZ=   11.3324   -0.3355   -0.5724 Q=    0.4100 A=    0.0000 R=    0.0000 C=    0.0000
 XYZ=   10.9806    0.9981    0.3019 Q=    0.4100 A=    0.0000 R=    0.0000 C=    0.0000
 XYZ=    5.5526   -3.7381  -10.9699 Q=   -0.8200 A=    0.0000 R=    0.0000 C=    0.0000
 XYZ=    6.2002   -3.9087  -11.7125 Q=    0.4100 A=    0.0000 R=    0.0000 C=    0.0000
 XYZ=    6.0479   -3.4163  -10.1629 Q=    0.4100 A=    0.0000 R=    0.0000 C=    0.0000
 XYZ=   -7.3941    2.6830    8.0953 Q=   -0.8200 A=    0.0000 R=    0.0000 C=    0.0000
 XYZ=   -7.3675    2.0231    8.8463 Q=    0.4100 A=    0.0000 R=    0.0000 C=    0.0000
 XYZ=   -6.7516    3.4262    8.2819 Q=    0.4100 A=    0.0000 R=    0.0000 C=    0.0000
 XYZ=   -2.3355    3.5877  -11.9415 Q=   -0.8200 A=    0.0000 R=    0.0000 C=    0.0000
 XYZ=   -2.7325    3.0442  -11.2018 Q=    0.4100 A=    0.0000 R=    0.0000 C=    0.0000
 XYZ=   -1.6279    3.0538  -12.4045 Q=    0.4100 A=    0.0000 R=    0.0000 C=    0.0000
 XYZ=   -6.8094    0.7118  -10.7388 Q=   -0.8200 A=    0.0000 R=    0.0000 C=    0.0000
 XYZ=   -6.7231    0.4610   -9.7746 Q=    0.4100 A=    0.0000 R=    0.0000 C=    0.0000
 XYZ=   -7.7763    0.7280  -10.9936 Q=    0.4100 A=    0.0000 R=    0.0000 C=    0.0000
 XYZ=    1.1611    1.7387   12.0548 Q=   -0.8200 A=    0.0000 R=    0.0000 C=    0.0000
 XYZ=    1.5214    1.8714   11.1313 Q=    0.4100 A=    0.0000 R=    0.0000 C=    0.0000
 XYZ=    1.1938    0.7670   12.2888 Q=    0.4100 A=    0.0000 R=    0.0000 C=    0.0000
 XYZ=   -9.4441    3.3133   -7.2932 Q=   -0.8200 A=    0.0000 R=    0.0000 C=    0.0000
 XYZ=   -9.7987    4.2324   -7.4651 Q=    0.4100 A=    0.0000 R=    0.0000 C=    0.0000
 XYZ=   -8.4581    3.3611   -7.1334 Q=    0.4100 A=    0.0000 R=    0.0000 C=    0.0000
 XYZ=   -5.5014   -9.8577   -2.1397 Q=   -0.8200 A=    0.0000 R=    0.0000 C=    0.0000
 XYZ=   -6.2190  -10.5055   -2.3955 Q=    0.4100 A=    0.0000 R=    0.0000 C=    0.0000
 XYZ=   -5.3691   -9.1978   -2.8794 Q=    0.4100 A=    0.0000 R=    0.0000 C=    0.0000
 XYZ=   -5.7119   -8.8628   -0.0719 Q=   -0.8200 A=    0.0000 R=    0.0000 C=    0.0000
 XYZ=   -6.4811   -9.1529    0.4975 Q=    0.4100 A=    0.0000 R=    0.0000 C=    0.0000
 XYZ=   -5.7549   -9.3316   -0.9541 Q=    0.4100 A=    0.0000 R=    0.0000 C=    0.0000
 XYZ=    2.5550    6.0600   10.0831 Q=   -0.8200 A=    0.0000 R=    0.0000 C=    0.0000
 XYZ=    1.8979    5.3067   10.0523 Q=    0.4100 A=    0.0000 R=    0.0000 C=    0.0000
 XYZ=    3.2481    5.9267    9.3747 Q=    0.4100 A=    0.0000 R=    0.0000 C=    0.0000
 XYZ=   -4.0085   -5.1221    8.8567 Q=   -0.8200 A=    0.0000 R=    0.0000 C=    0.0000
 XYZ=   -4.7340   -5.8087    8.8097 Q=    0.4100 A=    0.0000 R=    0.0000 C=    0.0000
 XYZ=   -3.7049   -5.0223    9.8042 Q=    0.4100 A=    0.0000 R=    0.0000 C=    0.0000
 XYZ=   -1.1634  -11.6170   -4.9922 Q=   -0.8200 A=    0.0000 R=    0.0000 C=    0.0000
 XYZ=   -0.9849  -11.3082   -4.0579 Q=    0.4100 A=    0.0000 R=    0.0000 C=    0.0000
 XYZ=   -1.2746  -10.8231   -5.5901 Q=    0.4100 A=    0.0000 R=    0.0000 C=    0.0000
 XYZ=   11.5820   -2.8424    3.4863 Q=   -0.8200 A=    0.0000 R=    0.0000 C=    0.0000
 XYZ=   10.9403   -3.2968    2.8684 Q=    0.4100 A=    0.0000 R=    0.0000 C=    0.0000
 XYZ=   11.2330   -2.8888    4.4223 Q=    0.4100 A=    0.0000 R=    0.0000 C=    0.0000
 XYZ=    8.8323   -9.0085    3.2287 Q=   -0.8200 A=    0.0000 R=    0.0000 C=    0.0000
 XYZ=    8.2886   -8.2667    2.8359 Q=    0.4100 A=    0.0000 R=    0.0000 C=    0.0000
 XYZ=    8.4744   -9.2411    4.1330 Q=    0.4100 A=    0.0000 R=    0.0000 C=    0.0000
 XYZ=   -8.9665   -6.3140   -2.0634 Q=   -0.8200 A=    0.0000 R=    0.0000 C=    0.0000
 XYZ=   -9.2408   -5.4036   -2.3732 Q=    0.4100 A=    0.0000 R=    0.0000 C=    0.0000
 XYZ=   -9.1728   -6.9847   -2.7759 Q=    0.4100 A=    0.0000 R=    0.0000 C=    0.0000
 XYZ=   -7.8203   -2.2779   -8.8124 Q=   -0.8200 A=    0.0000 R=    0.0000 C=    0.0000
 XYZ=   -8.6755   -1.7763   -8.6821 Q=    0.4100 A=    0.0000 R=    0.0000 C=    0.0000
 XYZ=   -7.9451   -2.9708   -9.5226 Q=    0.4100 A=    0.0000 R=    0.0000 C=    0.0000
 XYZ=   -7.2067    8.9983    5.0667 Q=   -0.8200 A=    0.0000 R=    0.0000 C=    0.0000
 XYZ=   -7.5000    9.7250    5.6879 Q=    0.4100 A=    0.0000 R=    0.0000 C=    0.0000
 XYZ=   -6.2142    9.0391    4.9512 Q=    0.4100 A=    0.0000 R=    0.0000 C=    0.0000
 XYZ=   -4.8403    9.7615    4.9656 Q=   -0.8200 A=    0.0000 R=    0.0000 C=    0.0000
 XYZ=   -4.1843   10.1281    5.6254 Q=    0.4100 A=    0.0000 R=    0.0000 C=    0.0000
 XYZ=   -4.9988   10.4352    4.2437 Q=    0.4100 A=    0.0000 R=    0.0000 C=    0.0000
 XYZ=    3.6621   -0.9225   11.7519 Q=   -0.8200 A=    0.0000 R=    0.0000 C=    0.0000
 XYZ=    3.8593   -1.0404   10.7786 Q=    0.4100 A=    0.0000 R=    0.0000 C=    0.0000
 XYZ=    4.1613   -0.1287   12.0993 Q=    0.4100 A=    0.0000 R=    0.0000 C=    0.0000
 XYZ=  -10.6641    4.6540    4.9035 Q=   -0.8200 A=    0.0000 R=    0.0000 C=    0.0000
 XYZ=  -10.7367    4.2152    4.0078 Q=    0.4100 A=    0.0000 R=    0.0000 C=    0.0000
 XYZ=   -9.6996    4.7684    5.1413 Q=    0.4100 A=    0.0000 R=    0.0000 C=    0.0000
 XYZ=   -0.0349   -1.9649   12.2951 Q=   -0.8200 A=    0.0000 R=    0.0000 C=    0.0000
 XYZ=   -0.1423   -2.2713   11.3493 Q=    0.4100 A=    0.0000 R=    0.0000 C=    0.0000
 XYZ=   -0.8722   -1.5072   12.5944 Q=    0.4100 A=    0.0000 R=    0.0000 C=    0.0000
 XYZ=   -2.7035    6.8201  -10.0322 Q=   -0.8200 A=    0.0000 R=    0.0000 C=    0.0000
 XYZ=   -2.1862    7.6628   -9.8828 Q=    0.4100 A=    0.0000 R=    0.0000 C=    0.0000
 XYZ=   -2.0724    6.0759  -10.2511 Q=    0.4100 A=    0.0000 R=    0.0000 C=    0.0000
 XYZ=   -3.8261  -11.3196   -1.5235 Q=   -0.8200 A=    0.0000 R=    0.0000 C=    0.0000
 XYZ=   -3.6424  -11.7719   -2.3963 Q=    0.4100 A=    0.0000 R=    0.0000 C=    0.0000
 XYZ=   -4.3860  -10.5061   -1.6811 Q=    0.4100 A=    0.0000 R=    0.0000 C=    0.0000
 XYZ=   -0.3884   -6.8969  -11.4885 Q=   -0.8200 A=    0.0000 R=    0.0000 C=    0.0000
 XYZ=   -1.2253   -7.0988  -10.9797 Q=    0.4100 A=    0.0000 R=    0.0000 C=    0.0000
 XYZ=    0.1889   -6.2828  -10.9503 Q=    0.4100 A=    0.0000 R=    0.0000 C=    0.0000
 XYZ=   10.0900   -7.2775   -3.4406 Q=   -0.8200 A=    0.0000 R=    0.0000 C=    0.0000
 XYZ=    9.6561   -7.7624   -2.6813 Q=    0.4100 A=    0.0000 R=    0.0000 C=    0.0000
 XYZ=   10.7293   -7.8901   -3.9055 Q=    0.4100 A=    0.0000 R=    0.0000 C=    0.0000
 XYZ=   -1.0394    2.5478   11.5945 Q=   -0.8200 A=    0.0000 R=    0.0000 C=    0.0000
 XYZ=   -0.1735    2.1222   11.8573 Q=    0.4100 A=    0.0000 R=    0.0000 C=    0.0000
 XYZ=   -0.9049    3.5318   11.4769 Q=    0.4100 A=    0.0000 R=    0.0000 C=    0.0000
 XYZ=   -0.6142    2.2498  -12.7152 Q=   -0.8200 A=    0.0000 R=    0.0000 C=    0.0000
 XYZ=   -0.0652    2.7419  -12.0395 Q=    0.4100 A=    0.0000 R=    0.0000 C=    0.0000
 XYZ=   -0.6416    1.2786  -12.4787 Q=    0.4100 A=    0.0000 R=    0.0000 C=    0.0000
 XYZ=   -5.5484   -5.3263   -9.4090 Q=   -0.8200 A=    0.0000 R=    0.0000 C=    0.0000
 XYZ=   -4.7485   -5.1764   -9.9902 Q=    0.4100 A=    0.0000 R=    0.0000 C=    0.0000
 XYZ=   -5.5210   -6.2543   -9.0372 Q=    0.4100 A=    0.0000 R=    0.0000 C=    0.0000
 XYZ=    6.7116    6.4921    6.6352 Q=   -0.8200 A=    0.0000 R=    0.0000 C=    0.0000
 XYZ=    7.1229    6.6934    5.7462 Q=    0.4100 A=    0.0000 R=    0.0000 C=    0.0000
 XYZ=    7.0233    7.1646    7.3066 Q=    0.4100 A=    0.0000 R=    0.0000 C=    0.0000
[...]
    39  O    0.000000   0.000000   0.000480  -0.000019   0.000365   0.000000
    40  H    0.000000   0.000000  -0.000001   0.000000  -0.000001   0.000000
    41  H    0.000000   0.000000  -0.000056   0.000004  -0.000012   0.000000
    42  O    0.000000   0.000000   0.000000   0.000000   0.000000   0.000000
    43  H    0.000000   0.000000   0.000000   0.000000   0.000000   0.000000
    44  H    0.000000   0.000000   0.000000   0.000000   0.000000   0.000000
    45  O    0.000000   0.000000  -0.005987  -0.000279   0.007256   0.000000
    46  H    0.000000   0.000000   0.000021  -0.000002  -0.000011   0.000000
    47  H    0.000000   0.000000  -0.000174   0.000003  -0.000185   0.000000
    48  O    0.000000   0.000000   0.000001   0.000000   0.000000   0.006673
    49  H    0.000000   0.000000   0.000000   0.000000   0.000000  -0.001105
    50  H    0.000000   0.000000   0.000000   0.000000   0.000000   0.000065
              31         32         33         34         35         36
     1  C   -0.000013   0.000285  -0.005122  -0.000919   0.002621   0.000074
     2  H    0.000000   0.000000  -0.000523   0.000031   0.000053  -0.000001
     3  H    0.000000   0.000000   0.000006   0.000000  -0.000002   0.000000
     4  C    0.000313  -0.000562  -0.000425   0.000996  -0.001656  -0.000393
     5  H    0.000000  -0.000001   0.000000   0.000000   0.000000   0.000000
     6  C   -0.000297   0.000706   0.006712  -0.000059   0.000235   0.000787
     7  H   -0.000001  -0.000008  -0.000003   0.000000   0.000000   0.000002
     8  O    0.000000  -0.000024  -0.003171   0.000008  -0.000269  -0.000627
     9  O    0.000000  -0.000007  -0.000054  -0.000001  -0.000088  -0.000623
    10  H    0.000000   0.000001   0.000002   0.000000  -0.000002   0.000047
    11  H    0.000000   0.000000   0.000003   0.000000   0.000001  -0.000014
    12  O    0.000000  -0.000007  -0.080195   0.001218   0.053550  -0.000015
    13  H    0.000000   0.000000   0.007551  -0.000753  -0.004340   0.000000
    14  H    0.000000   0.000001   0.004745   0.000073   0.001491  -0.000002
    15  O    0.000003   0.002374   0.000111   0.000009   0.000019   0.000000
    16  H   -0.000001  -0.000027  -0.000001   0.000000   0.000000   0.000000
    17  H   -0.000014  -0.000330   0.000000   0.000000   0.000000   0.000000
    18  O   -0.000262   0.000562   0.000000   0.000000   0.000000   0.000000
    19  H   -0.000127  -0.000075   0.000000   0.000000   0.000000   0.000000
    20  H   -0.000155  -0.003146   0.000000   0.000000   0.000000   0.000000
    21  O    0.000000   0.000000  -0.000008   0.000000  -0.000008  -0.062186
    22  H    0.000000   0.000000   0.000001   0.000000   0.000001   0.002753
    23  H    0.000000   0.000000   0.000000   0.000000   0.000000   0.000440
    24  O   -0.000001  -0.000001  -0.002721   0.002022   0.002250   0.000000
    25  H    0.000000   0.000000  -0.000078  -0.000114  -0.000010   0.000000
    26  H    0.000000   0.000008  -0.000004   0.000010   0.000002   0.000000
    27  O   -0.000001  -0.000003   0.000000   0.000000   0.000000  -0.000061
    28  H    0.000000   0.000000   0.000000   0.000000   0.000000  -0.000003
    29  H    0.000000   0.000000   0.000000   0.000000   0.000000   0.000000
    30  O    0.199405   0.209279   0.000000   0.000000   0.000000   0.000000
    31  H    0.136239  -0.012716   0.000000   0.000000   0.000000   0.000000
    32  H   -0.012716   0.284991   0.000000   0.000000   0.000000   0.000000
    33  O    0.000000   0.000000   8.925797   0.211425   0.145142   0.000002
    34  H    0.000000   0.000000   0.211425   0.241751  -0.004883   0.000000
    35  H    0.000000   0.000000   0.145142  -0.004883   0.166918   0.000001
    36  O    0.000000   0.000000   0.000002   0.000000   0.000001   8.906492
    37  H    0.000000   0.000000   0.000001   0.000000   0.000000   0.155648
    38  H    0.000000   0.000000   0.000000   0.000000   0.000000   0.214723
    39  O    0.000000   0.000000   0.000009  -0.000001  -0.000013  -0.006449
    40  H    0.000000   0.000000  -0.000001   0.000000  -0.000001  -0.000700
    41  H    0.000000   0.000000   0.000003   0.000000   0.000001   0.009677
    42  O    0.000000   0.000000  -0.000017  -0.000002   0.000000   0.000000
    43  H    0.000000   0.000000   0.000000   0.000000   0.000000   0.000000
    44  H    0.000000   0.000000   0.000001   0.000000   0.000000   0.000000
    45  O    0.000000   0.000000  -0.000025   0.000000   0.000024   0.000434
    46  H    0.000000   0.000000   0.000000   0.000000   0.000000  -0.000006
    47  H    0.000000   0.000000   0.000001   0.000000  -0.000001   0.000268
    48  O   -0.000016  -0.000683   0.000000   0.000000   0.000000   0.000000
    49  H   -0.000005   0.000020   0.000000   0.000000   0.000000   0.000000
    50  H   -0.000025   0.000003   0.000000   0.000000   0.000000   0.000000
              37         38         39         40         41         42
     1  C    0.000068  -0.000005  -0.000092  -0.000011   0.000005  -0.003607
     2  H    0.000000   0.000000   0.000001   0.000000   0.000000  -0.000028
     3  H    0.000000   0.000000   0.000000   0.000000   0.000000  -0.000056
     4  C   -0.000181   0.000046   0.001647  -0.000039  -0.000108   0.006124
     5  H    0.000000   0.000000   0.000000   0.000000   0.000000   0.000000
     6  C   -0.000320   0.000046   0.002295   0.000004   0.000141  -0.000553
     7  H   -0.000002   0.000000  -0.000016   0.000000   0.000001   0.000000
     8  O    0.001004   0.000018  -0.005026   0.000008   0.001131   0.000019
     9  O   -0.003642   0.000039  -0.013362   0.000454  -0.001178   0.000000
    10  H   -0.000017   0.000000   0.000317   0.000008   0.000039   0.000000
    11  H    0.000094   0.000000   0.009142  -0.000185  -0.000375   0.000000
    12  O   -0.000006   0.000000  -0.000062   0.000021  -0.000002   0.000014
    13  H    0.000000   0.000000   0.000001   0.000000   0.000000  -0.000001
    14  H    0.000000   0.000000   0.000025   0.000000   0.000000   0.000000
    15  O    0.000000   0.000000   0.000000   0.000000   0.000000  -0.000001
    16  H    0.000000   0.000000   0.000000   0.000000   0.000000   0.000000
    17  H    0.000000   0.000000   0.000000   0.000000   0.000000   0.000000
    18  O    0.000000   0.000000   0.000000   0.000000   0.000000   0.000000
    19  H    0.000000   0.000000   0.000000   0.000000   0.000000   0.000000
    20  H    0.000000   0.000000   0.000000   0.000000   0.000000   0.000000
    21  O    0.049660   0.000099  -0.044019   0.000506   0.054641   0.000000
    22  H    0.000441   0.000108   0.002707  -0.000107  -0.002596   0.000000
    23  H   -0.000075  -0.000232   0.000895   0.000007  -0.000108   0.000000
    24  O    0.000000   0.000000   0.000001   0.000000   0.000000  -0.000001
    25  H    0.000000   0.000000   0.000000   0.000000   0.000000   0.000000
    26  H    0.000000   0.000000   0.000000   0.000000   0.000000   0.000000
    27  O   -0.000023   0.000000   0.000480  -0.000001  -0.000056   0.000000
    28  H    0.000000   0.000000  -0.000019   0.000000   0.000004   0.000000
    29  H    0.000024   0.000000   0.000365  -0.000001  -0.000012   0.000000
    30  O    0.000000   0.000000   0.000000   0.000000   0.000000   0.000000
    31  H    0.000000   0.000000   0.000000   0.000000   0.000000   0.000000
    32  H    0.000000   0.000000   0.000000   0.000000   0.000000   0.000000
    33  O    0.000001   0.000000   0.000009  -0.000001   0.000003  -0.000017
    34  H    0.000000   0.000000  -0.000001   0.000000   0.000000  -0.000002
    35  H    0.000000   0.000000  -0.000013  -0.000001   0.000001   0.000000
    36  O    0.155648   0.214723  -0.006449  -0.000700   0.009677   0.000000
    37  H    0.216276  -0.010137   0.004263  -0.000441   0.005183   0.000000
    38  H   -0.010137   0.190512  -0.000932   0.000009  -0.000228   0.000000
    39  O    0.004263  -0.000932   9.058379   0.186184   0.129217   0.000000
    40  H   -0.000441   0.000009   0.186184   0.151247  -0.001096   0.000000
    41  H    0.005183  -0.000228   0.129217  -0.001096   0.223801   0.000000
    42  O    0.000000   0.000000   0.000000   0.000000   0.000000   8.697651
    43  H    0.000000   0.000000   0.000000   0.000000   0.000000   0.245633
    44  H    0.000000   0.000000   0.000000   0.000000   0.000000   0.215672
    45  O    0.000281  -0.000014  -0.120778   0.001702   0.003801   0.000000
    46  H    0.000000   0.000000   0.002024  -0.000053  -0.000051   0.000000
    47  H    0.000007  -0.000001   0.011002   0.001601   0.001183   0.000000
    48  O    0.000000   0.000000   0.000000   0.000000   0.000000   0.000000
    49  H    0.000000   0.000000   0.000000   0.000000   0.000000   0.000000
    50  H    0.000000   0.000000   0.000000   0.000000   0.000000   0.000000
              43         44         45         46         47         48
     1  C    0.000113  -0.000138  -0.001009   0.000014   0.000055   0.001759
     2  H    0.000002  -0.000001   0.000002   0.000000   0.000000   0.000000
     3  H   -0.000001   0.000001   0.000000   0.000000   0.000000  -0.000001
     4  C   -0.000141   0.000072   0.011116  -0.000008  -0.000700   0.001388
     5  H    0.000000   0.000000  -0.000001   0.000000   0.000000  -0.000059
     6  C   -0.000035   0.000044   0.005083  -0.000187  -0.001133  -0.002324
     7  H    0.000000   0.000000  -0.000348   0.000001  -0.000001   0.000010
     8  O    0.000000   0.000000  -0.004772  -0.000056   0.000462  -0.000002
     9  O    0.000000   0.000000  -0.165219   0.002500   0.010152   0.000001
    10  H    0.000000   0.000000   0.003331  -0.000203  -0.000318   0.000000
    11  H    0.000000   0.000000   0.029670   0.001169  -0.001284   0.000000
    12  O    0.000000  -0.000002  -0.000116   0.000020   0.000033   0.000000
    13  H    0.000000   0.000000  -0.000012   0.000000   0.000000   0.000000
    14  H    0.000000   0.000000  -0.000047  -0.000004  -0.000004   0.000000
    15  O    0.000000   0.000000   0.000000   0.000000   0.000000  -0.000387
    16  H    0.000000   0.000000   0.000000   0.000000   0.000000   0.000000
    17  H    0.000000   0.000000   0.000000   0.000000   0.000000   0.000371
    18  O    0.000000   0.000000   0.000000   0.000000   0.000000  -0.039259
    19  H    0.000000   0.000000   0.000000   0.000000   0.000000   0.024029
    20  H    0.000000   0.000000   0.000000   0.000000   0.000000  -0.000993
    21  O    0.000000   0.000000  -0.013850   0.000103   0.003752   0.000000
    22  H    0.000000   0.000000   0.008690  -0.000010  -0.000778   0.000000
    23  H    0.000000   0.000000   0.000163   0.000000  -0.000030   0.000000
    24  O    0.000000   0.000000   0.000008   0.000000   0.000000   0.000000
    25  H    0.000000   0.000000   0.000000   0.000000   0.000000   0.000000
    26  H    0.000000   0.000000   0.000000   0.000000   0.000000   0.000000
    27  O    0.000000   0.000000  -0.005987   0.000021  -0.000174   0.000001
    28  H    0.000000   0.000000  -0.000279  -0.000002   0.000003   0.000000
    29  H    0.000000   0.000000   0.007256  -0.000011  -0.000185   0.000000
    30  O    0.000000   0.000000   0.000000   0.000000   0.000000   0.006673
    31  H    0.000000   0.000000   0.000000   0.000000   0.000000  -0.000016
    32  H    0.000000   0.000000   0.000000   0.000000   0.000000  -0.000683
    33  O    0.000000   0.000001  -0.000025   0.000000   0.000001   0.000000
    34  H    0.000000   0.000000   0.000000   0.000000   0.000000   0.000000
    35  H    0.000000   0.000000   0.000024   0.000000  -0.000001   0.000000
    36  O    0.000000   0.000000   0.000434  -0.000006   0.000268   0.000000
    37  H    0.000000   0.000000   0.000281   0.000000   0.000007   0.000000
    38  H    0.000000   0.000000  -0.000014   0.000000  -0.000001   0.000000
    39  O    0.000000   0.000000  -0.120778   0.002024   0.011002   0.000000
    40  H    0.000000   0.000000   0.001702  -0.000053   0.001601   0.000000
    41  H    0.000000   0.000000   0.003801  -0.000051   0.001183   0.000000
    42  O    0.245633   0.215672   0.000000   0.000000   0.000000   0.000000
    43  H    0.221644  -0.010939   0.000000   0.000000   0.000000   0.000000
    44  H   -0.010939   0.175448   0.000000   0.000000   0.000000   0.000000
    45  O    0.000000   0.000000   9.127435   0.195145   0.152149   0.000000
    46  H    0.000000   0.000000   0.195145   0.139560  -0.001531   0.000000
    47  H    0.000000   0.000000   0.152149  -0.001531   0.220240   0.000000
    48  O    0.000000   0.000000   0.000000   0.000000   0.000000   8.780150
    49  H    0.000000   0.000000   0.000000   0.000000   0.000000   0.205804
    50  H    0.000000   0.000000   0.000000   0.000000   0.000000   0.224015
              49         50
     1  C   -0.000046  -0.000061
     2  H    0.000000   0.000000
     3  H    0.000000   0.000000
     4  C   -0.000008  -0.000140
     5  H    0.000000   0.000002
     6  C    0.000043   0.000164
     7  H    0.000000   0.000000
     8  O    0.000000   0.000000
     9  O    0.000000   0.000000
    10  H    0.000000   0.000000
    11  H    0.000000   0.000000
    12  O    0.000000   0.000000
    13  H    0.000000   0.000000
    14  H    0.000000   0.000000
    15  O   -0.000013   0.000012
    16  H    0.000000   0.000000
    17  H    0.000001  -0.000002
    18  O    0.001053   0.001419
    19  H   -0.002535   0.000766
    20  H   -0.000031  -0.000003
    21  O    0.000000   0.000000
    22  H    0.000000   0.000000
    23  H    0.000000   0.000000
    24  O    0.000000   0.000000
    25  H    0.000000   0.000000
    26  H    0.000000   0.000000
    27  O    0.000000   0.000000
    28  H    0.000000   0.000000
    29  H    0.000000   0.000000
    30  O   -0.001105   0.000065
    31  H   -0.000005  -0.000025
    32  H    0.000020   0.000003
    33  O    0.000000   0.000000
    34  H    0.000000   0.000000
    35  H    0.000000   0.000000
    36  O    0.000000   0.000000
    37  H    0.000000   0.000000
    38  H    0.000000   0.000000
    39  O    0.000000   0.000000
    40  H    0.000000   0.000000
    41  H    0.000000   0.000000
    42  O    0.000000   0.000000
    43  H    0.000000   0.000000
    44  H    0.000000   0.000000
    45  O    0.000000   0.000000
    46  H    0.000000   0.000000
    47  H    0.000000   0.000000
    48  O    0.205804   0.224015
    49  H    0.166594  -0.006197
    50  H   -0.006197   0.210138
 Mulliken charges:
               1
     1  C   -0.422708
     2  H    0.288684
     3  H    0.218819
     4  C   -0.048729
     5  H    0.222367
     6  C   -0.109850
     7  H    0.197893
     8  O   -0.294205
     9  O   -1.360144
    10  H    0.491145
    11  H    0.676176
    12  O   -1.161135
    13  H    0.627398
    14  H    0.521805
    15  O   -1.208984
    16  H    0.579829
    17  H    0.608940
    18  O   -1.189274
    19  H    0.590714
    20  H    0.588719
    21  O   -1.256169
    22  H    0.665172
    23  H    0.671430
    24  O   -1.222875
    25  H    0.633918
    26  H    0.615073
    27  O   -1.239254
    28  H    0.602031
    29  H    0.669464
    30  O   -1.160999
    31  H    0.677674
    32  H    0.519358
    33  O   -1.209166
    34  H    0.549187
    35  H    0.638967
    36  O   -1.220266
    37  H    0.581892
    38  H    0.605948
    39  O   -1.218186
    40  H    0.660885
    41  H    0.576981
    42  O   -1.160847
    43  H    0.543724
    44  H    0.619843
    45  O   -1.233832
    46  H    0.661565
    47  H    0.605231
    48  O   -1.200479
    49  H    0.636425
    50  H    0.569844
 Sum of Mulliken charges =   0.00000
 Mulliken charges with hydrogens summed into heavy atoms:
               1
     1  C    0.084796
     4  C    0.173639
     6  C    0.088044
     8  O   -0.294205
     9  O   -0.192823
    12  O   -0.011931
    15  O   -0.020216
    18  O   -0.009841
    21  O    0.080433
    24  O    0.026115
    27  O    0.032241
    30  O    0.036033
    33  O   -0.021012
    36  O   -0.032426
    39  O    0.019680
    42  O    0.002719
    45  O    0.032964
    48  O    0.005791
 Electronic spatial extent (au):  <R**2>=          12070.2018
 Charge=              0.0000 electrons
 Dipole moment (field-independent basis, Debye):
    X=             12.4661    Y=             -6.3543    Z=              0.9304  Tot=             14.0231
 Quadrupole moment (field-independent basis, Debye-Ang):
   XX=            -96.8162   YY=            -95.1096   ZZ=           -136.5665
   XY=             19.3773   XZ=             11.8083   YZ=            -16.1535
 Traceless Quadrupole moment (field-independent basis, Debye-Ang):
   XX=             12.6812   YY=             14.3878   ZZ=            -27.0690
   XY=             19.3773   XZ=             11.8083   YZ=            -16.1535
 Octapole moment (field-independent basis, Debye-Ang**2):
  XXX=             71.1472  YYY=             59.4673  ZZZ=            -14.3253  XYY=            277.2467
  XXY=           -282.9858  XXZ=             49.7099  XZZ=             75.1549  YZZ=           -151.8367
  YYZ=            -39.8911  XYZ=            -22.7468
 Hexadecapole moment (field-independent basis, Debye-Ang**3):
 XXXX=          -6468.9184 YYYY=          -3882.0649 ZZZZ=          -2157.4429 XXXY=           -511.3110
 XXXZ=            287.8203 YYYX=            555.5327 YYYZ=           -520.3623 ZZZX=            214.3292
 ZZZY=            -79.1429 XXYY=          -1206.7939 XXZZ=          -1561.3542 YYZZ=          -1414.7312
 XXYZ=           -745.0289 YYXZ=            281.9905 ZZXY=            416.4618
 N-N= 1.126443835223D+03 E-N=-6.220701698335D+03  KE= 1.249482367150D+03
 Leave Link  601 at Fri Sep 14 18:16:35 2018, MaxMem=    33554432 cpu:         2.9
 (Enter /usr/local/pacerepov1/gaussian/G09D01LINDA/g09/l9999.exe)

 Test job not archived.
 1\1\GINC-RICH133-B16-21-R\SP\RLC-wPBE TD-FC\6-31+G(d)\C3H32O15\ROOT\14
 -Sep-2018\0\\#p td=(nstates=15)/6-31+g(d) lc-wpbe charge\\Acroleina in
  Water\\0,1\C,0,0.485154,0.480443,-1.430142\H,0,1.461403,0.187773,-1.0
 55732\H,0,0.429244,0.878853,-2.437062\C,0,-0.605127,0.346563,-0.658432
 \H,0,-1.591686,0.632893,-1.012412\C,0,-0.508516,-0.199107,0.712798\H,0
 ,-1.458487,-0.272107,1.272438\O,0,0.544883,-0.561317,1.236519\O,0,-0.3
 69517,-1.302834,3.03178\H,0,-0.332527,-0.413314,2.5764\H,0,0.119213,-1
 .251924,3.90276\O,0,2.354813,1.271736,1.14575\H,0,2.335003,2.163226,0.
 69305\H,0,1.482913,1.113936,1.60934\O,0,-0.171417,3.955656,-0.78341\H,
 0,0.351763,4.766116,-1.04701\H,0,-1.135587,4.092986,-1.01048\O,0,-2.78
 7387,4.320076,-0.8891\H,0,-3.476937,3.602636,-0.9883\H,0,-2.805687,4.6
 72846,0.04645\O,0,0.486043,-3.561634,2.92889\H,0,0.010803,-2.694114,2.
 7819\H,0,-0.175567,-4.311264,2.911\O,0,2.181683,3.208566,-0.0305\H,0,2
 .716523,3.613296,-0.7722\H,0,1.207503,3.351076,-0.20587\O,0,-2.618927,
 -1.529014,3.77875\H,0,-2.681637,-2.121864,4.58165\H,0,-1.659427,-1.420
 444,3.51875\O,0,-3.103357,4.626416,1.46966\H,0,-3.962827,4.131506,1.59
 802\H,0,-2.340997,4.054476,1.77254\O,0,4.689623,1.065996,0.84508\H,0,4
 .756653,1.354716,-0.11\H,0,3.727453,1.027866,1.11498\O,0,2.114193,-4.9
 23854,1.83457\H,0,1.535573,-4.191754,2.19416\H,0,2.254213,-5.616134,2.
 54252\O,0,2.454323,-2.504494,4.23531\H,0,3.338833,-2.486204,3.76907\H,
 0,1.801903,-3.032614,3.69173\O,0,3.749753,-1.502694,-4.6722\H,0,3.3186
 33,-0.824634,-5.26757\H,0,4.333603,-1.038244,-4.00627\O,0,0.887563,-0.
 981384,4.95672\H,0,1.293623,-0.318324,5.58559\H,0,1.547303,-1.708714,4
 .76767\O,0,-5.041427,2.967906,-0.96683\H,0,-5.519047,3.827226,-0.78385
 \H,0,-5.619637,2.199976,-0.69111\\Version=EM64L-G09RevD.01\State=1-A\H
 F=-1759.1248758\RMSD=4.054e-09\PG=C01 [X(C3H32O15)]\\@


 EVERYTHING'S GOT A MORAL, IF ONLY YOU CAN FIND IT.

                                    -- LEWIS CARROL, ALICE IN WONDERLAND
 Job cpu time:       0 days  3 hours 27 minutes  2.3 seconds.
 File lengths (MBytes):  RWF=    792 Int=      0 D2E=      0 Chk=     96 Scr=      2
 Normal termination of Gaussian 09 at Fri Sep 14 18:16:39 2018.
