 Entering Gaussian System, Link 0=g09
 Input=Acroleina_water_15_11c.gjf
 Output=Acroleina_water_15_11c.log
 Initial command:
 /usr/local/pacerepov1/gaussian/G09D01LINDA/g09/l1.exe /nv/hp18/holiveira7/scratch/22411808/Gau-1625.inp -scrdir=/nv/hp18/holiveira7/scratch/22411808/
 Entering Link 1 = /usr/local/pacerepov1/gaussian/G09D01LINDA/g09/l1.exe PID=      1626.
  
 Copyright (c) 1988,1990,1992,1993,1995,1998,2003,2009,2013,
            Gaussian, Inc.  All Rights Reserved.
  
 This is part of the Gaussian(R) 09 program.  It is based on
 the Gaussian(R) 03 system (copyright 2003, Gaussian, Inc.),
 the Gaussian(R) 98 system (copyright 1998, Gaussian, Inc.),
 the Gaussian(R) 94 system (copyright 1995, Gaussian, Inc.),
 the Gaussian 92(TM) system (copyright 1992, Gaussian, Inc.),
 the Gaussian 90(TM) system (copyright 1990, Gaussian, Inc.),
 the Gaussian 88(TM) system (copyright 1988, Gaussian, Inc.),
 the Gaussian 86(TM) system (copyright 1986, Carnegie Mellon
 University), and the Gaussian 82(TM) system (copyright 1983,
 Carnegie Mellon University). Gaussian is a federally registered
 trademark of Gaussian, Inc.
  
 This software contains proprietary and confidential information,
 including trade secrets, belonging to Gaussian, Inc.
  
 This software is provided under written license and may be
 used, copied, transmitted, or stored only in accord with that
 written license.
  
 The following legend is applicable only to US Government
 contracts under FAR:
  
                    RESTRICTED RIGHTS LEGEND
  
 Use, reproduction and disclosure by the US Government is
 subject to restrictions as set forth in subparagraphs (a)
 and (c) of the Commercial Computer Software - Restricted
 Rights clause in FAR 52.227-19.
  
 Gaussian, Inc.
 340 Quinnipiac St., Bldg. 40, Wallingford CT 06492
  
  
 ---------------------------------------------------------------
 Warning -- This program may not be used in any manner that
 competes with the business of Gaussian, Inc. or will provide
 assistance to any competitor of Gaussian, Inc.  The licensee
 of this program is prohibited from giving any competitor of
 Gaussian, Inc. access to this program.  By using this program,
 the user acknowledges that Gaussian, Inc. is engaged in the
 business of creating and licensing software in the field of
 computational chemistry and represents and warrants to the
 licensee that it is not a competitor of Gaussian, Inc. and that
 it will not use this program in any manner prohibited above.
 ---------------------------------------------------------------
  

 Cite this work as:
 Gaussian 09, Revision D.01,
 M. J. Frisch, G. W. Trucks, H. B. Schlegel, G. E. Scuseria, 
 M. A. Robb, J. R. Cheeseman, G. Scalmani, V. Barone, B. Mennucci, 
 G. A. Petersson, H. Nakatsuji, M. Caricato, X. Li, H. P. Hratchian, 
 A. F. Izmaylov, J. Bloino, G. Zheng, J. L. Sonnenberg, M. Hada, 
 M. Ehara, K. Toyota, R. Fukuda, J. Hasegawa, M. Ishida, T. Nakajima, 
 Y. Honda, O. Kitao, H. Nakai, T. Vreven, J. A. Montgomery, Jr., 
 J. E. Peralta, F. Ogliaro, M. Bearpark, J. J. Heyd, E. Brothers, 
 K. N. Kudin, V. N. Staroverov, T. Keith, R. Kobayashi, J. Normand, 
 K. Raghavachari, A. Rendell, J. C. Burant, S. S. Iyengar, J. Tomasi, 
 M. Cossi, N. Rega, J. M. Millam, M. Klene, J. E. Knox, J. B. Cross, 
 V. Bakken, C. Adamo, J. Jaramillo, R. Gomperts, R. E. Stratmann, 
 O. Yazyev, A. J. Austin, R. Cammi, C. Pomelli, J. W. Ochterski, 
 R. L. Martin, K. Morokuma, V. G. Zakrzewski, G. A. Voth, 
 P. Salvador, J. J. Dannenberg, S. Dapprich, A. D. Daniels, 
 O. Farkas, J. B. Foresman, J. V. Ortiz, J. Cioslowski, 
 and D. J. Fox, Gaussian, Inc., Wallingford CT, 2013.
 
 ******************************************
 Gaussian 09:  EM64L-G09RevD.01 24-Apr-2013
                14-Sep-2018 
 ******************************************
 %chk=Acrolina_Din_11.chk
 %nprocshared=10
 Will use up to   10 processors via shared memory.
 -------------------------------------------
 #p td=(nstates=15)/6-31+g(d) lc-wpbe charge
 -------------------------------------------
 1/18=10,28=-2,38=1,125=101/1;
 2/12=2,17=6,18=5,40=1/2;
 3/5=1,6=6,7=11,11=9,16=1,25=1,30=1,74=-41/1,2,8,3;
 4//1;
 5/5=2,38=5/2;
 8/6=1,10=2,108=15/1;
 9/41=15,42=1,70=2/14;
 6/7=2,8=2,9=2,10=2/1;
 99/5=1,9=1/99;
 Leave Link    1 at Fri Sep 14 16:25:23 2018, MaxMem=           0 cpu:         7.1
 (Enter /usr/local/pacerepov1/gaussian/G09D01LINDA/g09/l101.exe)
 ------------------
 Acroleina in Water
 ------------------
 Symbolic Z-matrix:
 Charge =  0 Multiplicity = 1
 C                     0.48515   0.48044  -1.43014 
 H                     1.4614    0.18777  -1.05573 
 H                     0.42924   0.87885  -2.43706 
 C                    -0.60513   0.34656  -0.65843 
 H                    -1.59169   0.63289  -1.01241 
 C                    -0.50852  -0.19911   0.7128 
 H                    -1.45849  -0.27211   1.27244 
 O                     0.54488  -0.56132   1.23652 
 O                     0.20599  -0.59608   3.5442 
 H                     0.4098   -0.03283   2.74342 
 H                     0.68918  -0.23114   4.34006 
 O                     3.17444   1.36213   0.56686 
 H                     2.81662   2.28568   0.70508 
 H                     2.50706   0.69358   0.89498 
 O                     0.71953   4.12876  -0.39716 
 H                     1.2017    4.87028  -0.86373 
 H                    -0.25768   4.33788  -0.36038 
 O                     1.50233  -2.54671   2.9084 
 H                     0.80246  -1.86578   3.1242 
 H                     1.13789  -3.46313   3.07377 
 O                    -1.53863   4.63609  -0.41278 
 H                    -2.42042   4.20021  -0.59309 
 H                    -1.53478   5.0091    0.51506 
 O                     2.96121   3.86578   0.41379 
 H                     3.58672   4.19938  -0.2915 
 H                     2.01776   3.97037   0.09907 
 O                     3.1297   -4.51235   1.57159 
 H                     2.38348  -3.88049   1.78132 
 H                     3.4338   -4.95981   2.41262 
 O                    -1.94187  -1.00653   4.39722 
 H                    -1.82302  -1.80993   4.98072 
 H                    -1.08789  -0.8174    3.91247 
 O                    -2.8178   -4.88116   1.23903 
 H                    -1.85179  -5.0018    1.01031 
 H                    -3.3806   -5.13162   0.45125 
 O                    -1.63312   5.37426   1.83199 
 H                    -2.55508   5.0493    2.04289 
 H                    -0.97037   4.89068   2.40382 
 O                     5.4556    1.92016   0.48953 
 H                     5.7732    2.07973  -0.44519 
 H                     4.51492   1.58139   0.46862 
 O                     2.99221  -1.59167   4.51118 
 H                     3.88378  -1.3997    4.10092 
 H                     2.37092  -1.94118   3.80983 
 O                    -1.15372   6.52542  -1.86782 
 H                    -1.3719    5.83237  -1.18069 
 H                    -0.84012   7.35882  -1.41271 
 O                    -4.02836  -1.44133   2.56349 
 H                    -3.04408  -1.40362   2.73617 
 H                    -4.35881  -2.37209   2.72025 
 
 NAtoms=     50 NQM=       50 NQMF=       0 NMMI=      0 NMMIF=      0
                NMic=       0 NMicF=      0.
                    Isotopes and Nuclear Properties:
 (Nuclear quadrupole moments (NQMom) in fm**2, nuclear magnetic moments (NMagM)
  in nuclear magnetons)

  Atom         1           2           3           4           5           6           7           8           9          10
 IAtWgt=          12           1           1          12           1          12           1          16          16           1
 AtmWgt=  12.0000000   1.0078250   1.0078250  12.0000000   1.0078250  12.0000000   1.0078250  15.9949146  15.9949146   1.0078250
 NucSpn=           0           1           1           0           1           0           1           0           0           1
 AtZEff=   0.0000000   0.0000000   0.0000000   0.0000000   0.0000000   0.0000000   0.0000000   0.0000000   0.0000000   0.0000000
 NQMom=    0.0000000   0.0000000   0.0000000   0.0000000   0.0000000   0.0000000   0.0000000   0.0000000   0.0000000   0.0000000
 NMagM=    0.0000000   2.7928460   2.7928460   0.0000000   2.7928460   0.0000000   2.7928460   0.0000000   0.0000000   2.7928460
 AtZNuc=   6.0000000   1.0000000   1.0000000   6.0000000   1.0000000   6.0000000   1.0000000   8.0000000   8.0000000   1.0000000

  Atom        11          12          13          14          15          16          17          18          19          20
 IAtWgt=           1          16           1           1          16           1           1          16           1           1
 AtmWgt=   1.0078250  15.9949146   1.0078250   1.0078250  15.9949146   1.0078250   1.0078250  15.9949146   1.0078250   1.0078250
 NucSpn=           1           0           1           1           0           1           1           0           1           1
 AtZEff=   0.0000000   0.0000000   0.0000000   0.0000000   0.0000000   0.0000000   0.0000000   0.0000000   0.0000000   0.0000000
 NQMom=    0.0000000   0.0000000   0.0000000   0.0000000   0.0000000   0.0000000   0.0000000   0.0000000   0.0000000   0.0000000
 NMagM=    2.7928460   0.0000000   2.7928460   2.7928460   0.0000000   2.7928460   2.7928460   0.0000000   2.7928460   2.7928460
 AtZNuc=   1.0000000   8.0000000   1.0000000   1.0000000   8.0000000   1.0000000   1.0000000   8.0000000   1.0000000   1.0000000

  Atom        21          22          23          24          25          26          27          28          29          30
 IAtWgt=          16           1           1          16           1           1          16           1           1          16
 AtmWgt=  15.9949146   1.0078250   1.0078250  15.9949146   1.0078250   1.0078250  15.9949146   1.0078250   1.0078250  15.9949146
 NucSpn=           0           1           1           0           1           1           0           1           1           0
 AtZEff=   0.0000000   0.0000000   0.0000000   0.0000000   0.0000000   0.0000000   0.0000000   0.0000000   0.0000000   0.0000000
 NQMom=    0.0000000   0.0000000   0.0000000   0.0000000   0.0000000   0.0000000   0.0000000   0.0000000   0.0000000   0.0000000
 NMagM=    0.0000000   2.7928460   2.7928460   0.0000000   2.7928460   2.7928460   0.0000000   2.7928460   2.7928460   0.0000000
 AtZNuc=   8.0000000   1.0000000   1.0000000   8.0000000   1.0000000   1.0000000   8.0000000   1.0000000   1.0000000   8.0000000

  Atom        31          32          33          34          35          36          37          38          39          40
 IAtWgt=           1           1          16           1           1          16           1           1          16           1
 AtmWgt=   1.0078250   1.0078250  15.9949146   1.0078250   1.0078250  15.9949146   1.0078250   1.0078250  15.9949146   1.0078250
 NucSpn=           1           1           0           1           1           0           1           1           0           1
 AtZEff=   0.0000000   0.0000000   0.0000000   0.0000000   0.0000000   0.0000000   0.0000000   0.0000000   0.0000000   0.0000000
 NQMom=    0.0000000   0.0000000   0.0000000   0.0000000   0.0000000   0.0000000   0.0000000   0.0000000   0.0000000   0.0000000
 NMagM=    2.7928460   2.7928460   0.0000000   2.7928460   2.7928460   0.0000000   2.7928460   2.7928460   0.0000000   2.7928460
 AtZNuc=   1.0000000   1.0000000   8.0000000   1.0000000   1.0000000   8.0000000   1.0000000   1.0000000   8.0000000   1.0000000

  Atom        41          42          43          44          45          46          47          48          49          50
 IAtWgt=           1          16           1           1          16           1           1          16           1           1
 AtmWgt=   1.0078250  15.9949146   1.0078250   1.0078250  15.9949146   1.0078250   1.0078250  15.9949146   1.0078250   1.0078250
 NucSpn=           1           0           1           1           0           1           1           0           1           1
 AtZEff=   0.0000000   0.0000000   0.0000000   0.0000000   0.0000000   0.0000000   0.0000000   0.0000000   0.0000000   0.0000000
 NQMom=    0.0000000   0.0000000   0.0000000   0.0000000   0.0000000   0.0000000   0.0000000   0.0000000   0.0000000   0.0000000
 NMagM=    2.7928460   0.0000000   2.7928460   2.7928460   0.0000000   2.7928460   2.7928460   0.0000000   2.7928460   2.7928460
 AtZNuc=   1.0000000   8.0000000   1.0000000   1.0000000   8.0000000   1.0000000   1.0000000   8.0000000   1.0000000   1.0000000
 Background charge distribution read from input stream:
 Point Charges:
 XYZ=    2.6138   -5.7727   -0.5564 Q=   -0.8200 A=    0.0000 R=    0.0000 C=    0.0000
 XYZ=    2.7865   -5.2983    0.3068 Q=    0.4100 A=    0.0000 R=    0.0000 C=    0.0000
 XYZ=    3.4843   -5.9792   -1.0032 Q=    0.4100 A=    0.0000 R=    0.0000 C=    0.0000
 XYZ=   -4.2018    1.4567   -5.2330 Q=   -0.8200 A=    0.0000 R=    0.0000 C=    0.0000
 XYZ=   -4.2905    0.8157   -4.4705 Q=    0.4100 A=    0.0000 R=    0.0000 C=    0.0000
 XYZ=   -3.2975    1.8828   -5.2066 Q=    0.4100 A=    0.0000 R=    0.0000 C=    0.0000
 XYZ=    0.2742   -4.8439    3.2175 Q=   -0.8200 A=    0.0000 R=    0.0000 C=    0.0000
 XYZ=    0.2298   -5.4884    2.4542 Q=    0.4100 A=    0.0000 R=    0.0000 C=    0.0000
 XYZ=    1.0391   -5.0864    3.8143 Q=    0.4100 A=    0.0000 R=    0.0000 C=    0.0000
 XYZ=   -3.9441    4.1412   -1.0255 Q=   -0.8200 A=    0.0000 R=    0.0000 C=    0.0000
 XYZ=   -4.3401    4.9088   -0.5215 Q=    0.4100 A=    0.0000 R=    0.0000 C=    0.0000
 XYZ=   -4.5567    3.3529   -0.9677 Q=    0.4100 A=    0.0000 R=    0.0000 C=    0.0000
 XYZ=    1.4799   -0.1666    5.4053 Q=   -0.8200 A=    0.0000 R=    0.0000 C=    0.0000
 XYZ=    1.8949    0.4713    6.0540 Q=    0.4100 A=    0.0000 R=    0.0000 C=    0.0000
 XYZ=    2.1551   -0.8527    5.1343 Q=    0.4100 A=    0.0000 R=    0.0000 C=    0.0000
 XYZ=   -4.4286   -4.3289   -4.4920 Q=   -0.8200 A=    0.0000 R=    0.0000 C=    0.0000
 XYZ=   -3.8800   -3.6828   -3.9611 Q=    0.4100 A=    0.0000 R=    0.0000 C=    0.0000
 XYZ=   -4.7510   -3.8842   -5.3276 Q=    0.4100 A=    0.0000 R=    0.0000 C=    0.0000
 XYZ=   -2.3471    2.6460   -5.2211 Q=   -0.8200 A=    0.0000 R=    0.0000 C=    0.0000
 XYZ=   -1.6514    3.2840   -4.8909 Q=    0.4100 A=    0.0000 R=    0.0000 C=    0.0000
 XYZ=   -2.5356    2.8285   -6.1861 Q=    0.4100 A=    0.0000 R=    0.0000 C=    0.0000
 XYZ=   -1.5811    4.7738   -4.1339 Q=   -0.8200 A=    0.0000 R=    0.0000 C=    0.0000
 XYZ=   -0.9743    4.9858   -3.3678 Q=    0.4100 A=    0.0000 R=    0.0000 C=    0.0000
 XYZ=   -2.5326    4.8754   -3.8435 Q=    0.4100 A=    0.0000 R=    0.0000 C=    0.0000
 XYZ=    0.4649   -6.8740   -0.3486 Q=   -0.8200 A=    0.0000 R=    0.0000 C=    0.0000
 XYZ=    1.2714   -6.3574   -0.6364 Q=    0.4100 A=    0.0000 R=    0.0000 C=    0.0000
 XYZ=    0.3488   -7.6693   -0.9436 Q=    0.4100 A=    0.0000 R=    0.0000 C=    0.0000
 XYZ=   -5.5294    2.4787   -0.9620 Q=   -0.8200 A=    0.0000 R=    0.0000 C=    0.0000
 XYZ=   -5.6020    1.4813   -0.9704 Q=    0.4100 A=    0.0000 R=    0.0000 C=    0.0000
 XYZ=   -6.0687    2.8584   -1.7136 Q=    0.4100 A=    0.0000 R=    0.0000 C=    0.0000
 XYZ=    1.9994    5.8811   -1.5002 Q=   -0.8200 A=    0.0000 R=    0.0000 C=    0.0000
 XYZ=    2.9011    5.5359   -1.7607 Q=    0.4100 A=    0.0000 R=    0.0000 C=    0.0000
 XYZ=    1.5640    6.3074   -2.2931 Q=    0.4100 A=    0.0000 R=    0.0000 C=    0.0000
 XYZ=    3.9730    5.2668    1.9028 Q=   -0.8200 A=    0.0000 R=    0.0000 C=    0.0000
 XYZ=    3.4795    4.5225    1.4528 Q=    0.4100 A=    0.0000 R=    0.0000 C=    0.0000
 XYZ=    4.4286    5.8295    1.2130 Q=    0.4100 A=    0.0000 R=    0.0000 C=    0.0000
 XYZ=   -0.5508   -6.4910    1.6030 Q=   -0.8200 A=    0.0000 R=    0.0000 C=    0.0000
 XYZ=    0.0797   -6.6667    0.8470 Q=    0.4100 A=    0.0000 R=    0.0000 C=    0.0000
 XYZ=   -1.3707   -7.0524    1.4906 Q=    0.4100 A=    0.0000 R=    0.0000 C=    0.0000
 XYZ=   -4.0759    4.3041    2.0549 Q=   -0.8200 A=    0.0000 R=    0.0000 C=    0.0000
 XYZ=   -4.5337    4.8460    1.3500 Q=    0.4100 A=    0.0000 R=    0.0000 C=    0.0000
 XYZ=   -4.3762    4.6105    2.9582 Q=    0.4100 A=    0.0000 R=    0.0000 C=    0.0000
 XYZ=    5.1911   -4.7957    0.5313 Q=   -0.8200 A=    0.0000 R=    0.0000 C=    0.0000
 XYZ=    4.3582   -4.5589    1.0316 Q=    0.4100 A=    0.0000 R=    0.0000 C=    0.0000
 XYZ=    4.9503   -5.3060   -0.2943 Q=    0.4100 A=    0.0000 R=    0.0000 C=    0.0000
 XYZ=   -3.7651    4.9611   -3.3865 Q=   -0.8200 A=    0.0000 R=    0.0000 C=    0.0000
 XYZ=   -3.8040    4.4687   -2.5169 Q=    0.4100 A=    0.0000 R=    0.0000 C=    0.0000
 XYZ=   -4.2878    4.4605   -4.0765 Q=    0.4100 A=    0.0000 R=    0.0000 C=    0.0000
 XYZ=   -3.9005    0.0523    4.6184 Q=   -0.8200 A=    0.0000 R=    0.0000 C=    0.0000
 XYZ=   -2.9822   -0.3205    4.4845 Q=    0.4100 A=    0.0000 R=    0.0000 C=    0.0000
 XYZ=   -4.4544   -0.1261    3.8052 Q=    0.4100 A=    0.0000 R=    0.0000 C=    0.0000
 XYZ=   -0.8255    7.5507    1.3118 Q=   -0.8200 A=    0.0000 R=    0.0000 C=    0.0000
 XYZ=   -1.3120    8.3260    1.7147 Q=    0.4100 A=    0.0000 R=    0.0000 C=    0.0000
 XYZ=   -1.2824    6.6997    1.5706 Q=    0.4100 A=    0.0000 R=    0.0000 C=    0.0000
 XYZ=   -5.8280    2.8013    1.4470 Q=   -0.8200 A=    0.0000 R=    0.0000 C=    0.0000
 XYZ=   -5.0393    3.3699    1.6809 Q=    0.4100 A=    0.0000 R=    0.0000 C=    0.0000
 XYZ=   -5.7930    2.5663    0.4756 Q=    0.4100 A=    0.0000 R=    0.0000 C=    0.0000
 XYZ=   -1.5051   -5.0647    4.8480 Q=   -0.8200 A=    0.0000 R=    0.0000 C=    0.0000
 XYZ=   -0.7808   -5.0984    4.1593 Q=    0.4100 A=    0.0000 R=    0.0000 C=    0.0000
 XYZ=   -1.4188   -5.8500    5.4612 Q=    0.4100 A=    0.0000 R=    0.0000 C=    0.0000
 XYZ=    0.2103   -1.9572    6.6607 Q=   -0.8200 A=    0.0000 R=    0.0000 C=    0.0000
 XYZ=    0.4750   -1.1297    6.1654 Q=    0.4100 A=    0.0000 R=    0.0000 C=    0.0000
 XYZ=   -0.5713   -2.3828    6.2048 Q=    0.4100 A=    0.0000 R=    0.0000 C=    0.0000
 XYZ=   -6.3821    0.1344   -0.5170 Q=   -0.8200 A=    0.0000 R=    0.0000 C=    0.0000
 XYZ=   -6.4294   -0.3084   -1.4124 Q=    0.4100 A=    0.0000 R=    0.0000 C=    0.0000
 XYZ=   -6.2537   -0.5595    0.1916 Q=    0.4100 A=    0.0000 R=    0.0000 C=    0.0000
 XYZ=   -5.1294    3.5488   -4.7996 Q=   -0.8200 A=    0.0000 R=    0.0000 C=    0.0000
 XYZ=   -5.4722    3.8653   -5.6841 Q=    0.4100 A=    0.0000 R=    0.0000 C=    0.0000
 XYZ=   -4.5943    2.7140   -4.9289 Q=    0.4100 A=    0.0000 R=    0.0000 C=    0.0000
 XYZ=   -4.6107   -5.6900   -0.3284 Q=   -0.8200 A=    0.0000 R=    0.0000 C=    0.0000
 XYZ=   -5.0246   -5.4862   -1.2157 Q=    0.4100 A=    0.0000 R=    0.0000 C=    0.0000
 XYZ=   -4.4603   -6.6755   -0.2492 Q=    0.4100 A=    0.0000 R=    0.0000 C=    0.0000
 XYZ=   -5.9961   -1.6982    1.0385 Q=   -0.8200 A=    0.0000 R=    0.0000 C=    0.0000
 XYZ=   -5.1940   -1.4934    1.5996 Q=    0.4100 A=    0.0000 R=    0.0000 C=    0.0000
 XYZ=   -6.1102   -2.6893    0.9694 Q=    0.4100 A=    0.0000 R=    0.0000 C=    0.0000
 XYZ=   -3.3026   -5.6226    3.3918 Q=   -0.8200 A=    0.0000 R=    0.0000 C=    0.0000
 XYZ=   -2.5868   -5.3121    4.0174 Q=    0.4100 A=    0.0000 R=    0.0000 C=    0.0000
 XYZ=   -3.0823   -5.3293    2.4615 Q=    0.4100 A=    0.0000 R=    0.0000 C=    0.0000
 XYZ=    5.1682   -1.4798    3.7030 Q=   -0.8200 A=    0.0000 R=    0.0000 C=    0.0000
 XYZ=    5.4772   -0.6744    4.2088 Q=    0.4100 A=    0.0000 R=    0.0000 C=    0.0000
 XYZ=    5.5409   -1.4540    2.7754 Q=    0.4100 A=    0.0000 R=    0.0000 C=    0.0000
 XYZ=    2.6487    7.6589   -0.0232 Q=   -0.8200 A=    0.0000 R=    0.0000 C=    0.0000
 XYZ=    2.1459    7.7156    0.8394 Q=    0.4100 A=    0.0000 R=    0.0000 C=    0.0000
 XYZ=    2.3551    6.8466   -0.5273 Q=    0.4100 A=    0.0000 R=    0.0000 C=    0.0000
 XYZ=   -5.9072   -4.2695    1.0990 Q=   -0.8200 A=    0.0000 R=    0.0000 C=    0.0000
 XYZ=   -5.2664   -4.7419    0.4938 Q=    0.4100 A=    0.0000 R=    0.0000 C=    0.0000
 XYZ=   -5.4213   -3.9447    1.9105 Q=    0.4100 A=    0.0000 R=    0.0000 C=    0.0000
 XYZ=    0.8551    6.8059   -3.4135 Q=   -0.8200 A=    0.0000 R=    0.0000 C=    0.0000
 XYZ=    0.0309    6.7896   -2.8474 Q=    0.4100 A=    0.0000 R=    0.0000 C=    0.0000
 XYZ=    0.5997    6.7208   -4.3766 Q=    0.4100 A=    0.0000 R=    0.0000 C=    0.0000
 XYZ=    4.1660    5.0532   -1.5166 Q=   -0.8200 A=    0.0000 R=    0.0000 C=    0.0000
 XYZ=    4.5441    5.6272   -0.7903 Q=    0.4100 A=    0.0000 R=    0.0000 C=    0.0000
 XYZ=    4.8963    4.7884   -2.1463 Q=    0.4100 A=    0.0000 R=    0.0000 C=    0.0000
 XYZ=    3.9784   -0.9496   -4.5365 Q=   -0.8200 A=    0.0000 R=    0.0000 C=    0.0000
 XYZ=    3.5165   -0.5343   -5.3204 Q=    0.4100 A=    0.0000 R=    0.0000 C=    0.0000
 XYZ=    4.3458   -0.2303   -3.9468 Q=    0.4100 A=    0.0000 R=    0.0000 C=    0.0000
 XYZ=   -5.5170   -5.5032   -2.5808 Q=   -0.8200 A=    0.0000 R=    0.0000 C=    0.0000
 XYZ=   -6.5163   -5.5018   -2.5420 Q=    0.4100 A=    0.0000 R=    0.0000 C=    0.0000
 XYZ=   -5.2143   -5.0046   -3.3931 Q=    0.4100 A=    0.0000 R=    0.0000 C=    0.0000
 XYZ=    3.2643    0.1281   -6.4982 Q=   -0.8200 A=    0.0000 R=    0.0000 C=    0.0000
 XYZ=    3.4548    0.8433   -7.1706 Q=    0.4100 A=    0.0000 R=    0.0000 C=    0.0000
 XYZ=    2.2779    0.0695   -6.3443 Q=    0.4100 A=    0.0000 R=    0.0000 C=    0.0000
 XYZ=    7.2609    0.2892    0.9318 Q=   -0.8200 A=    0.0000 R=    0.0000 C=    0.0000
 XYZ=    6.5020    0.8965    0.6965 Q=    0.4100 A=    0.0000 R=    0.0000 C=    0.0000
 XYZ=    6.9047   -0.6182    1.1552 Q=    0.4100 A=    0.0000 R=    0.0000 C=    0.0000
 XYZ=    6.4602   -2.9369   -0.2509 Q=   -0.8200 A=    0.0000 R=    0.0000 C=    0.0000
 XYZ=    5.8587   -3.7054   -0.0330 Q=    0.4100 A=    0.0000 R=    0.0000 C=    0.0000
 XYZ=    7.3350   -3.2838   -0.5892 Q=    0.4100 A=    0.0000 R=    0.0000 C=    0.0000
 XYZ=   -1.8026   -2.8980    5.8179 Q=   -0.8200 A=    0.0000 R=    0.0000 C=    0.0000
 XYZ=   -2.4171   -3.0255    6.5964 Q=    0.4100 A=    0.0000 R=    0.0000 C=    0.0000
 XYZ=   -1.7803   -3.7345    5.2704 Q=    0.4100 A=    0.0000 R=    0.0000 C=    0.0000
 XYZ=   -4.7386   -3.6592    3.1039 Q=   -0.8200 A=    0.0000 R=    0.0000 C=    0.0000
 XYZ=   -5.2716   -3.5037    3.9357 Q=    0.4100 A=    0.0000 R=    0.0000 C=    0.0000
 XYZ=   -4.0158   -4.3245    3.2908 Q=    0.4100 A=    0.0000 R=    0.0000 C=    0.0000
 XYZ=   -3.3692    7.1944   -2.3947 Q=   -0.8200 A=    0.0000 R=    0.0000 C=    0.0000
 XYZ=   -2.3921    7.0468   -2.2412 Q=    0.4100 A=    0.0000 R=    0.0000 C=    0.0000
 XYZ=   -3.7665    6.3808   -2.8193 Q=    0.4100 A=    0.0000 R=    0.0000 C=    0.0000
 XYZ=    3.7400   -2.6908    6.4785 Q=   -0.8200 A=    0.0000 R=    0.0000 C=    0.0000
 XYZ=    3.3658   -2.3223    5.6275 Q=    0.4100 A=    0.0000 R=    0.0000 C=    0.0000
 XYZ=    4.2025   -1.9614    6.9826 Q=    0.4100 A=    0.0000 R=    0.0000 C=    0.0000
 XYZ=    6.7139    3.1019    2.4208 Q=   -0.8200 A=    0.0000 R=    0.0000 C=    0.0000
 XYZ=    6.3040    3.8521    2.9396 Q=    0.4100 A=    0.0000 R=    0.0000 C=    0.0000
 XYZ=    6.1927    2.9540    1.5803 Q=    0.4100 A=    0.0000 R=    0.0000 C=    0.0000
 XYZ=   -1.2312    5.1164   -6.3749 Q=   -0.8200 A=    0.0000 R=    0.0000 C=    0.0000
 XYZ=   -1.4311    4.9088   -5.4173 Q=    0.4100 A=    0.0000 R=    0.0000 C=    0.0000
 XYZ=   -2.0843    5.3120   -6.8586 Q=    0.4100 A=    0.0000 R=    0.0000 C=    0.0000
 XYZ=    5.4640   -2.7647   -3.9718 Q=   -0.8200 A=    0.0000 R=    0.0000 C=    0.0000
 XYZ=    6.1469   -2.3923   -3.3433 Q=    0.4100 A=    0.0000 R=    0.0000 C=    0.0000
 XYZ=    4.7414   -2.0890   -4.1175 Q=    0.4100 A=    0.0000 R=    0.0000 C=    0.0000
 XYZ=   -3.7071   -6.6313   -4.9853 Q=   -0.8200 A=    0.0000 R=    0.0000 C=    0.0000
 XYZ=   -4.0980   -5.7364   -4.7700 Q=    0.4100 A=    0.0000 R=    0.0000 C=    0.0000
 XYZ=   -3.9181   -7.2733   -4.2482 Q=    0.4100 A=    0.0000 R=    0.0000 C=    0.0000
 XYZ=    4.0097   -5.1055    3.6817 Q=   -0.8200 A=    0.0000 R=    0.0000 C=    0.0000
 XYZ=    3.3098   -5.4676    4.2974 Q=    0.4100 A=    0.0000 R=    0.0000 C=    0.0000
 XYZ=    4.5503   -4.4142    4.1614 Q=    0.4100 A=    0.0000 R=    0.0000 C=    0.0000
 XYZ=   -1.4591   -6.6301   -6.2250 Q=   -0.8200 A=    0.0000 R=    0.0000 C=    0.0000
 XYZ=   -1.9483   -6.7541   -7.0884 Q=    0.4100 A=    0.0000 R=    0.0000 C=    0.0000
 XYZ=   -2.1001   -6.3281   -5.5193 Q=    0.4100 A=    0.0000 R=    0.0000 C=    0.0000
 XYZ=    2.8209    6.4609    3.4696 Q=   -0.8200 A=    0.0000 R=    0.0000 C=    0.0000
 XYZ=    2.2844    7.0958    2.9137 Q=    0.4100 A=    0.0000 R=    0.0000 C=    0.0000
 XYZ=    3.3511    5.8601    2.8712 Q=    0.4100 A=    0.0000 R=    0.0000 C=    0.0000
 XYZ=    1.4907    7.9552    2.1315 Q=   -0.8200 A=    0.0000 R=    0.0000 C=    0.0000
 XYZ=    1.3463    8.6873    2.7972 Q=    0.4100 A=    0.0000 R=    0.0000 C=    0.0000
 XYZ=    0.6182    7.7147    1.7061 Q=    0.4100 A=    0.0000 R=    0.0000 C=    0.0000
 XYZ=   -0.6681    8.5461   -0.6923 Q=   -0.8200 A=    0.0000 R=    0.0000 C=    0.0000
 XYZ=    0.1392    9.1270   -0.5874 Q=    0.4100 A=    0.0000 R=    0.0000 C=    0.0000
 XYZ=   -0.8122    8.0212    0.1465 Q=    0.4100 A=    0.0000 R=    0.0000 C=    0.0000
 XYZ=    6.4412   -1.8205    1.6982 Q=   -0.8200 A=    0.0000 R=    0.0000 C=    0.0000
 XYZ=    6.4415   -2.2321    0.7868 Q=    0.4100 A=    0.0000 R=    0.0000 C=    0.0000
 XYZ=    6.7093   -2.5070    2.3741 Q=    0.4100 A=    0.0000 R=    0.0000 C=    0.0000
 XYZ=   -5.1164    5.7611    0.1838 Q=   -0.8200 A=    0.0000 R=    0.0000 C=    0.0000
 XYZ=   -5.1515    6.4444   -0.5456 Q=    0.4100 A=    0.0000 R=    0.0000 C=    0.0000
 XYZ=   -5.9813    5.7648    0.6858 Q=    0.4100 A=    0.0000 R=    0.0000 C=    0.0000
 XYZ=   -0.1667   -8.4110    2.9370 Q=   -0.8200 A=    0.0000 R=    0.0000 C=    0.0000
 XYZ=   -0.1404   -9.1169    2.2292 Q=    0.4100 A=    0.0000 R=    0.0000 C=    0.0000
 XYZ=   -0.3525   -7.5234    2.5157 Q=    0.4100 A=    0.0000 R=    0.0000 C=    0.0000
 XYZ=   -6.8108    3.2850   -2.9000 Q=   -0.8200 A=    0.0000 R=    0.0000 C=    0.0000
 XYZ=   -6.1586    3.3542   -3.6549 Q=    0.4100 A=    0.0000 R=    0.0000 C=    0.0000
 XYZ=   -7.7142    3.0525   -3.2604 Q=    0.4100 A=    0.0000 R=    0.0000 C=    0.0000
 XYZ=    1.8040   -5.3829    5.0970 Q=   -0.8200 A=    0.0000 R=    0.0000 C=    0.0000
 XYZ=    1.2930   -6.2195    5.2947 Q=    0.4100 A=    0.0000 R=    0.0000 C=    0.0000
 XYZ=    1.6878   -4.7356    5.8503 Q=    0.4100 A=    0.0000 R=    0.0000 C=    0.0000
 XYZ=    6.8427   -1.5086   -2.0698 Q=   -0.8200 A=    0.0000 R=    0.0000 C=    0.0000
 XYZ=    7.7871   -1.2216   -1.9090 Q=    0.4100 A=    0.0000 R=    0.0000 C=    0.0000
 XYZ=    6.5019   -1.9979   -1.2670 Q=    0.4100 A=    0.0000 R=    0.0000 C=    0.0000
 XYZ=   -4.6175    1.9697   -7.5866 Q=   -0.8200 A=    0.0000 R=    0.0000 C=    0.0000
 XYZ=   -5.2377    1.5275   -8.2345 Q=    0.4100 A=    0.0000 R=    0.0000 C=    0.0000
 XYZ=   -4.6898    1.5201   -6.6962 Q=    0.4100 A=    0.0000 R=    0.0000 C=    0.0000
 XYZ=    5.2329   -3.4811    4.7768 Q=   -0.8200 A=    0.0000 R=    0.0000 C=    0.0000
 XYZ=    5.1423   -2.5894    4.3333 Q=    0.4100 A=    0.0000 R=    0.0000 C=    0.0000
 XYZ=    4.8153   -3.4456    5.6848 Q=    0.4100 A=    0.0000 R=    0.0000 C=    0.0000
 XYZ=    5.5710    4.8811    3.5818 Q=   -0.8200 A=    0.0000 R=    0.0000 C=    0.0000
 XYZ=    5.2871    4.6387    4.5096 Q=    0.4100 A=    0.0000 R=    0.0000 C=    0.0000
 XYZ=    4.7654    5.1143    3.0370 Q=    0.4100 A=    0.0000 R=    0.0000 C=    0.0000
 XYZ=    2.9422    0.9518    7.1439 Q=   -0.8200 A=    0.0000 R=    0.0000 C=    0.0000
 XYZ=    3.3584    0.0710    7.3695 Q=    0.4100 A=    0.0000 R=    0.0000 C=    0.0000
 XYZ=    3.6546    1.5947    6.8624 Q=    0.4100 A=    0.0000 R=    0.0000 C=    0.0000
 XYZ=    4.8581   -6.2804   -1.4712 Q=   -0.8200 A=    0.0000 R=    0.0000 C=    0.0000
 XYZ=    5.6803   -6.8462   -1.4080 Q=    0.4100 A=    0.0000 R=    0.0000 C=    0.0000
 XYZ=    4.9863   -5.5842   -2.1775 Q=    0.4100 A=    0.0000 R=    0.0000 C=    0.0000
 XYZ=    5.8946    0.4100    5.1290 Q=   -0.8200 A=    0.0000 R=    0.0000 C=    0.0000
 XYZ=    6.3804   -0.0602    5.8659 Q=    0.4100 A=    0.0000 R=    0.0000 C=    0.0000
 XYZ=    5.4155    1.2055    5.5001 Q=    0.4100 A=    0.0000 R=    0.0000 C=    0.0000
 XYZ=   -4.8410   -7.8052   -3.0944 Q=   -0.8200 A=    0.0000 R=    0.0000 C=    0.0000
 XYZ=   -4.9056   -6.8628   -2.7662 Q=    0.4100 A=    0.0000 R=    0.0000 C=    0.0000
 XYZ=   -5.7603   -8.1748   -3.2297 Q=    0.4100 A=    0.0000 R=    0.0000 C=    0.0000
 XYZ=    6.2135    2.3131   -1.9017 Q=   -0.8200 A=    0.0000 R=    0.0000 C=    0.0000
 XYZ=    6.1166    3.2169   -2.3185 Q=    0.4100 A=    0.0000 R=    0.0000 C=    0.0000
 XYZ=    5.9713    1.6100   -2.5703 Q=    0.4100 A=    0.0000 R=    0.0000 C=    0.0000
 XYZ=    1.5609   -3.8542    6.8218 Q=   -0.8200 A=    0.0000 R=    0.0000 C=    0.0000
 XYZ=    2.4729   -3.4613    6.9393 Q=    0.4100 A=    0.0000 R=    0.0000 C=    0.0000
 XYZ=    0.8933   -3.1184    6.7071 Q=    0.4100 A=    0.0000 R=    0.0000 C=    0.0000
 XYZ=    5.9994   -5.9899    2.4013 Q=   -0.8200 A=    0.0000 R=    0.0000 C=    0.0000
 XYZ=    5.7113   -5.5132    1.5708 Q=    0.4100 A=    0.0000 R=    0.0000 C=    0.0000
 XYZ=    5.2209   -6.0762    3.0231 Q=    0.4100 A=    0.0000 R=    0.0000 C=    0.0000
 XYZ=   -0.0695   -5.3230   -7.6654 Q=   -0.8200 A=    0.0000 R=    0.0000 C=    0.0000
 XYZ=    0.9287   -5.3836   -7.6707 Q=    0.4100 A=    0.0000 R=    0.0000 C=    0.0000
 XYZ=   -0.4330   -5.8762   -6.9158 Q=    0.4100 A=    0.0000 R=    0.0000 C=    0.0000
 XYZ=   -7.1290    1.4105    2.8910 Q=   -0.8200 A=    0.0000 R=    0.0000 C=    0.0000
 XYZ=   -6.5958    1.8983    2.1997 Q=    0.4100 A=    0.0000 R=    0.0000 C=    0.0000
 XYZ=   -6.6902    1.5129    3.7838 Q=    0.4100 A=    0.0000 R=    0.0000 C=    0.0000
 XYZ=   -2.1210   -8.4628    0.9072 Q=   -0.8200 A=    0.0000 R=    0.0000 C=    0.0000
 XYZ=   -3.0470   -8.1876    0.6486 Q=    0.4100 A=    0.0000 R=    0.0000 C=    0.0000
 XYZ=   -1.5914   -8.6661    0.0836 Q=    0.4100 A=    0.0000 R=    0.0000 C=    0.0000
 XYZ=    5.3648   -5.0020   -3.5673 Q=   -0.8200 A=    0.0000 R=    0.0000 C=    0.0000
 XYZ=    5.3691   -4.0207   -3.7599 Q=    0.4100 A=    0.0000 R=    0.0000 C=    0.0000
 XYZ=    4.7082   -5.4569   -4.1690 Q=    0.4100 A=    0.0000 R=    0.0000 C=    0.0000
 XYZ=   -5.6990    1.4380    5.0983 Q=   -0.8200 A=    0.0000 R=    0.0000 C=    0.0000
 XYZ=   -4.8381    0.9476    4.9630 Q=    0.4100 A=    0.0000 R=    0.0000 C=    0.0000
 XYZ=   -6.2759    0.9287    5.7370 Q=    0.4100 A=    0.0000 R=    0.0000 C=    0.0000
 XYZ=   -7.0831    4.8990    1.2320 Q=   -0.8200 A=    0.0000 R=    0.0000 C=    0.0000
 XYZ=   -6.5403    4.0648    1.3294 Q=    0.4100 A=    0.0000 R=    0.0000 C=    0.0000
 XYZ=   -8.0437    4.6958    1.4216 Q=    0.4100 A=    0.0000 R=    0.0000 C=    0.0000
 XYZ=   -8.7774    0.5190   -0.3162 Q=   -0.8200 A=    0.0000 R=    0.0000 C=    0.0000
 XYZ=   -9.1462    1.3201   -0.7877 Q=    0.4100 A=    0.0000 R=    0.0000 C=    0.0000
 XYZ=   -7.7798    0.5206   -0.3868 Q=    0.4100 A=    0.0000 R=    0.0000 C=    0.0000
 XYZ=   -2.6179    3.0655   -7.6179 Q=   -0.8200 A=    0.0000 R=    0.0000 C=    0.0000
 XYZ=   -3.4723    2.5481   -7.6657 Q=    0.4100 A=    0.0000 R=    0.0000 C=    0.0000
 XYZ=   -2.8113    4.0398   -7.7334 Q=    0.4100 A=    0.0000 R=    0.0000 C=    0.0000
 XYZ=    5.9805    0.3644   -3.3390 Q=   -0.8200 A=    0.0000 R=    0.0000 C=    0.0000
 XYZ=    6.5118    0.4357   -4.1832 Q=    0.4100 A=    0.0000 R=    0.0000 C=    0.0000
 XYZ=    6.3474   -0.3762   -2.7759 Q=    0.4100 A=    0.0000 R=    0.0000 C=    0.0000
 XYZ=    4.8018    2.2507    6.3869 Q=   -0.8200 A=    0.0000 R=    0.0000 C=    0.0000
 XYZ=    5.5312    2.1133    7.0571 Q=    0.4100 A=    0.0000 R=    0.0000 C=    0.0000
 XYZ=    4.8952    3.1565    5.9737 Q=    0.4100 A=    0.0000 R=    0.0000 C=    0.0000
 XYZ=    4.9206    6.8683   -0.1630 Q=   -0.8200 A=    0.0000 R=    0.0000 C=    0.0000
 XYZ=    4.0181    7.2989   -0.1508 Q=    0.4100 A=    0.0000 R=    0.0000 C=    0.0000
 XYZ=    5.5848    7.4738    0.2753 Q=    0.4100 A=    0.0000 R=    0.0000 C=    0.0000
 XYZ=    3.4059    4.4507   -5.8070 Q=   -0.8200 A=    0.0000 R=    0.0000 C=    0.0000
 XYZ=    4.2936    4.3355   -5.3611 Q=    0.4100 A=    0.0000 R=    0.0000 C=    0.0000
 XYZ=    2.8680    5.1303   -5.3081 Q=    0.4100 A=    0.0000 R=    0.0000 C=    0.0000
 XYZ=   -4.8412    5.1526    4.0511 Q=   -0.8200 A=    0.0000 R=    0.0000 C=    0.0000
 XYZ=   -5.5789    5.6902    3.6426 Q=    0.4100 A=    0.0000 R=    0.0000 C=    0.0000
 XYZ=   -5.2210    4.5346    4.7395 Q=    0.4100 A=    0.0000 R=    0.0000 C=    0.0000
 XYZ=   -4.8308   -1.0860    6.4550 Q=   -0.8200 A=    0.0000 R=    0.0000 C=    0.0000
 XYZ=   -4.3930   -0.5835    5.7095 Q=    0.4100 A=    0.0000 R=    0.0000 C=    0.0000
 XYZ=   -4.1314   -1.4261    7.0836 Q=    0.4100 A=    0.0000 R=    0.0000 C=    0.0000
 XYZ=   -0.6781   -9.1130   -0.8663 Q=   -0.8200 A=    0.0000 R=    0.0000 C=    0.0000
 XYZ=   -0.1425   -9.4337   -0.0851 Q=    0.4100 A=    0.0000 R=    0.0000 C=    0.0000
 XYZ=   -1.3384   -9.8166   -1.1291 Q=    0.4100 A=    0.0000 R=    0.0000 C=    0.0000
 XYZ=   -1.3462   -1.4097    8.4649 Q=   -0.8200 A=    0.0000 R=    0.0000 C=    0.0000
 XYZ=   -0.7696   -1.4418    7.6485 Q=    0.4100 A=    0.0000 R=    0.0000 C=    0.0000
 XYZ=   -0.8060   -1.6709    9.2649 Q=    0.4100 A=    0.0000 R=    0.0000 C=    0.0000
 XYZ=   -5.2348   -3.2309   -6.4920 Q=   -0.8200 A=    0.0000 R=    0.0000 C=    0.0000
 XYZ=   -5.2993   -3.9075   -7.2256 Q=    0.4100 A=    0.0000 R=    0.0000 C=    0.0000
 XYZ=   -5.4931   -2.3315   -6.8445 Q=    0.4100 A=    0.0000 R=    0.0000 C=    0.0000
 XYZ=   -4.2957   -7.9907    0.2889 Q=   -0.8200 A=    0.0000 R=    0.0000 C=    0.0000
 XYZ=   -5.0183   -8.1057    0.9707 Q=    0.4100 A=    0.0000 R=    0.0000 C=    0.0000
 XYZ=   -4.3967   -8.6848   -0.4239 Q=    0.4100 A=    0.0000 R=    0.0000 C=    0.0000
 XYZ=    0.5098   -7.3425    5.0466 Q=   -0.8200 A=    0.0000 R=    0.0000 C=    0.0000
 XYZ=   -0.3513   -7.5015    5.5296 Q=    0.4100 A=    0.0000 R=    0.0000 C=    0.0000
 XYZ=    0.4245   -7.6570    4.1011 Q=    0.4100 A=    0.0000 R=    0.0000 C=    0.0000
 XYZ=    1.5244    9.5148   -0.8814 Q=   -0.8200 A=    0.0000 R=    0.0000 C=    0.0000
 XYZ=    1.1565    9.4343   -1.8078 Q=    0.4100 A=    0.0000 R=    0.0000 C=    0.0000
 XYZ=    1.9904    8.6656   -0.6329 Q=    0.4100 A=    0.0000 R=    0.0000 C=    0.0000
 XYZ=   -7.6939   -0.9600    2.7062 Q=   -0.8200 A=    0.0000 R=    0.0000 C=    0.0000
 XYZ=   -7.0803   -1.3010    1.9940 Q=    0.4100 A=    0.0000 R=    0.0000 C=    0.0000
 XYZ=   -7.5774    0.0287    2.8012 Q=    0.4100 A=    0.0000 R=    0.0000 C=    0.0000
 XYZ=    2.0002    2.6924    8.4140 Q=   -0.8200 A=    0.0000 R=    0.0000 C=    0.0000
 XYZ=    2.3322    1.8564    7.9770 Q=    0.4100 A=    0.0000 R=    0.0000 C=    0.0000
 XYZ=    1.0742    2.5422    8.7605 Q=    0.4100 A=    0.0000 R=    0.0000 C=    0.0000
 XYZ=    7.8679    1.5712    3.9595 Q=   -0.8200 A=    0.0000 R=    0.0000 C=    0.0000
 XYZ=    7.4269    2.0893    3.2266 Q=    0.4100 A=    0.0000 R=    0.0000 C=    0.0000
 XYZ=    7.1787    1.0429    4.4555 Q=    0.4100 A=    0.0000 R=    0.0000 C=    0.0000
 XYZ=    6.8367   -3.9028    2.9194 Q=   -0.8200 A=    0.0000 R=    0.0000 C=    0.0000
 XYZ=    6.3708   -3.5600    3.7352 Q=    0.4100 A=    0.0000 R=    0.0000 C=    0.0000
 XYZ=    6.4974   -4.8179    2.7017 Q=    0.4100 A=    0.0000 R=    0.0000 C=    0.0000
 XYZ=    0.5613    9.1270   -2.9647 Q=   -0.8200 A=    0.0000 R=    0.0000 C=    0.0000
 XYZ=   -0.0981    9.5807   -3.5642 Q=    0.4100 A=    0.0000 R=    0.0000 C=    0.0000
 XYZ=    0.8304    8.2519   -3.3670 Q=    0.4100 A=    0.0000 R=    0.0000 C=    0.0000
 XYZ=    0.2417    6.8026   -5.6975 Q=   -0.8200 A=    0.0000 R=    0.0000 C=    0.0000
 XYZ=   -0.4186    6.1038   -5.9727 Q=    0.4100 A=    0.0000 R=    0.0000 C=    0.0000
 XYZ=    0.8774    6.9752   -6.4499 Q=    0.4100 A=    0.0000 R=    0.0000 C=    0.0000
 XYZ=    3.1308    5.8533    6.1688 Q=   -0.8200 A=    0.0000 R=    0.0000 C=    0.0000
 XYZ=    2.8582    6.1710    5.2606 Q=    0.4100 A=    0.0000 R=    0.0000 C=    0.0000
 XYZ=    2.3154    5.6228    6.6999 Q=    0.4100 A=    0.0000 R=    0.0000 C=    0.0000
 XYZ=    5.9325    4.5017   -2.8772 Q=   -0.8200 A=    0.0000 R=    0.0000 C=    0.0000
 XYZ=    6.8415    4.8326   -2.6238 Q=    0.4100 A=    0.0000 R=    0.0000 C=    0.0000
 XYZ=    5.8147    4.5766   -3.8674 Q=    0.4100 A=    0.0000 R=    0.0000 C=    0.0000
 XYZ=    8.3000    1.5826   -0.7996 Q=   -0.8200 A=    0.0000 R=    0.0000 C=    0.0000
 XYZ=    7.5449    1.9816   -1.3198 Q=    0.4100 A=    0.0000 R=    0.0000 C=    0.0000
 XYZ=    7.9340    0.9868   -0.0846 Q=    0.4100 A=    0.0000 R=    0.0000 C=    0.0000
 XYZ=   -0.3227   -8.7009   -6.3500 Q=   -0.8200 A=    0.0000 R=    0.0000 C=    0.0000
 XYZ=   -0.8011   -7.8623   -6.0894 Q=    0.4100 A=    0.0000 R=    0.0000 C=    0.0000
 XYZ=   -0.7529   -9.0907   -7.1643 Q=    0.4100 A=    0.0000 R=    0.0000 C=    0.0000
 XYZ=    4.9559    4.4731    5.8282 Q=   -0.8200 A=    0.0000 R=    0.0000 C=    0.0000
 XYZ=    5.6996    4.7446    6.4392 Q=    0.4100 A=    0.0000 R=    0.0000 C=    0.0000
 XYZ=    4.1297    4.9867    6.0601 Q=    0.4100 A=    0.0000 R=    0.0000 C=    0.0000
 XYZ=   -0.7997   -1.2305   -9.8160 Q=   -0.8200 A=    0.0000 R=    0.0000 C=    0.0000
 XYZ=   -0.7274   -2.1109  -10.2846 Q=    0.4100 A=    0.0000 R=    0.0000 C=    0.0000
 XYZ=   -1.1148   -1.3770   -8.8783 Q=    0.4100 A=    0.0000 R=    0.0000 C=    0.0000
 XYZ=    5.5280   -3.2701   -6.4349 Q=   -0.8200 A=    0.0000 R=    0.0000 C=    0.0000
 XYZ=    5.5229   -3.1261   -5.4453 Q=    0.4100 A=    0.0000 R=    0.0000 C=    0.0000
 XYZ=    6.4725   -3.3153   -6.7603 Q=    0.4100 A=    0.0000 R=    0.0000 C=    0.0000
 XYZ=   -5.6425    7.3675   -1.5054 Q=   -0.8200 A=    0.0000 R=    0.0000 C=    0.0000
 XYZ=   -4.7879    7.5618   -1.9870 Q=    0.4100 A=    0.0000 R=    0.0000 C=    0.0000
 XYZ=   -5.8959    8.1560   -0.9448 Q=    0.4100 A=    0.0000 R=    0.0000 C=    0.0000
 XYZ=   -4.8686   -6.7406    4.6513 Q=   -0.8200 A=    0.0000 R=    0.0000 C=    0.0000
 XYZ=   -4.1609   -6.3409    4.0687 Q=    0.4100 A=    0.0000 R=    0.0000 C=    0.0000
 XYZ=   -5.5987   -6.0725    4.7947 Q=    0.4100 A=    0.0000 R=    0.0000 C=    0.0000
 XYZ=   -7.4077   -6.0454    1.8921 Q=   -0.8200 A=    0.0000 R=    0.0000 C=    0.0000
 XYZ=   -8.1408   -6.2666    1.2488 Q=    0.4100 A=    0.0000 R=    0.0000 C=    0.0000
 XYZ=   -6.8306   -5.3262    1.5051 Q=    0.4100 A=    0.0000 R=    0.0000 C=    0.0000
 XYZ=   -3.9791    6.8066    5.6304 Q=   -0.8200 A=    0.0000 R=    0.0000 C=    0.0000
 XYZ=   -4.8595    7.0382    6.0443 Q=    0.4100 A=    0.0000 R=    0.0000 C=    0.0000
 XYZ=   -4.1096    6.0833    4.9523 Q=    0.4100 A=    0.0000 R=    0.0000 C=    0.0000
 XYZ=   -5.8352    3.8476   -7.1357 Q=   -0.8200 A=    0.0000 R=    0.0000 C=    0.0000
 XYZ=   -5.7184    4.4300   -7.9402 Q=    0.4100 A=    0.0000 R=    0.0000 C=    0.0000
 XYZ=   -5.3891    2.9668   -7.2942 Q=    0.4100 A=    0.0000 R=    0.0000 C=    0.0000
 XYZ=   -7.5074    5.7500   -2.1890 Q=   -0.8200 A=    0.0000 R=    0.0000 C=    0.0000
 XYZ=   -6.8257    6.3733   -1.8057 Q=    0.4100 A=    0.0000 R=    0.0000 C=    0.0000
 XYZ=   -7.0500    4.9374   -2.5504 Q=    0.4100 A=    0.0000 R=    0.0000 C=    0.0000
 XYZ=    1.0016    5.4538   -7.9514 Q=   -0.8200 A=    0.0000 R=    0.0000 C=    0.0000
 XYZ=    0.2234    5.0993   -7.4330 Q=    0.4100 A=    0.0000 R=    0.0000 C=    0.0000
 XYZ=    1.7461    4.7863   -7.9330 Q=    0.4100 A=    0.0000 R=    0.0000 C=    0.0000
 XYZ=   -2.1081    2.6207   -9.9430 Q=   -0.8200 A=    0.0000 R=    0.0000 C=    0.0000
 XYZ=   -2.1266    2.5064   -8.9498 Q=    0.4100 A=    0.0000 R=    0.0000 C=    0.0000
 XYZ=   -1.9075    1.7419  -10.3760 Q=    0.4100 A=    0.0000 R=    0.0000 C=    0.0000
 XYZ=    1.3575    5.0332    8.0920 Q=   -0.8200 A=    0.0000 R=    0.0000 C=    0.0000
 XYZ=    1.8934    5.4868    8.8041 Q=    0.4100 A=    0.0000 R=    0.0000 C=    0.0000
 XYZ=    1.6912    4.0987    7.9680 Q=    0.4100 A=    0.0000 R=    0.0000 C=    0.0000
 XYZ=    4.6049   -0.8478    7.6766 Q=   -0.8200 A=    0.0000 R=    0.0000 C=    0.0000
 XYZ=    4.8011   -0.6970    8.6455 Q=    0.4100 A=    0.0000 R=    0.0000 C=    0.0000
 XYZ=    5.4536   -0.7858    7.1513 Q=    0.4100 A=    0.0000 R=    0.0000 C=    0.0000
 XYZ=   -5.9721    3.7102    5.8386 Q=   -0.8200 A=    0.0000 R=    0.0000 C=    0.0000
 XYZ=   -6.0445    3.4658    6.8056 Q=    0.4100 A=    0.0000 R=    0.0000 C=    0.0000
 XYZ=   -5.8163    2.8843    5.2968 Q=    0.4100 A=    0.0000 R=    0.0000 C=    0.0000
 XYZ=   -3.7438    9.3513   -3.1515 Q=   -0.8200 A=    0.0000 R=    0.0000 C=    0.0000
 XYZ=   -3.1023    9.9448   -2.6654 Q=    0.4100 A=    0.0000 R=    0.0000 C=    0.0000
 XYZ=   -3.6019    8.4033   -2.8667 Q=    0.4100 A=    0.0000 R=    0.0000 C=    0.0000
 XYZ=    9.3146    0.6620    2.0046 Q=   -0.8200 A=    0.0000 R=    0.0000 C=    0.0000
 XYZ=    9.0681    1.0187    2.9057 Q=    0.4100 A=    0.0000 R=    0.0000 C=    0.0000
 XYZ=    8.4841    0.4154    1.5051 Q=    0.4100 A=    0.0000 R=    0.0000 C=    0.0000
 XYZ=   -4.5840   -6.7681   -7.3137 Q=   -0.8200 A=    0.0000 R=    0.0000 C=    0.0000
 XYZ=   -3.9094   -7.1073   -7.9693 Q=    0.4100 A=    0.0000 R=    0.0000 C=    0.0000
 XYZ=   -4.2439   -6.9069   -6.3835 Q=    0.4100 A=    0.0000 R=    0.0000 C=    0.0000
 XYZ=   -4.5285   -9.6046   -1.5065 Q=   -0.8200 A=    0.0000 R=    0.0000 C=    0.0000
 XYZ=   -5.3016  -10.2279   -1.6240 Q=    0.4100 A=    0.0000 R=    0.0000 C=    0.0000
 XYZ=   -4.5092   -8.9512   -2.2632 Q=    0.4100 A=    0.0000 R=    0.0000 C=    0.0000
 XYZ=   -0.2075  -10.2907   -4.4388 Q=   -0.8200 A=    0.0000 R=    0.0000 C=    0.0000
 XYZ=    0.0268   -9.6811   -3.6815 Q=    0.4100 A=    0.0000 R=    0.0000 C=    0.0000
 XYZ=   -0.2224   -9.7706   -5.2929 Q=    0.4100 A=    0.0000 R=    0.0000 C=    0.0000
 XYZ=   -6.5135    6.1928    3.0937 Q=   -0.8200 A=    0.0000 R=    0.0000 C=    0.0000
 XYZ=   -7.0934    6.0138    3.8885 Q=    0.4100 A=    0.0000 R=    0.0000 C=    0.0000
 XYZ=   -6.8369    5.6525    2.3168 Q=    0.4100 A=    0.0000 R=    0.0000 C=    0.0000
 XYZ=   -7.7444   -5.4886   -2.3495 Q=   -0.8200 A=    0.0000 R=    0.0000 C=    0.0000
 XYZ=   -8.3297   -4.7745   -1.9654 Q=    0.4100 A=    0.0000 R=    0.0000 C=    0.0000
 XYZ=   -8.2175   -6.3684   -2.3025 Q=    0.4100 A=    0.0000 R=    0.0000 C=    0.0000
 XYZ=   -2.2245   10.2906   -1.6718 Q=   -0.8200 A=    0.0000 R=    0.0000 C=    0.0000
 XYZ=   -2.9492   10.6475   -1.0823 Q=    0.4100 A=    0.0000 R=    0.0000 C=    0.0000
 XYZ=   -1.6292    9.6879   -1.1403 Q=    0.4100 A=    0.0000 R=    0.0000 C=    0.0000
 XYZ=    2.7018    3.6826   -7.9393 Q=   -0.8200 A=    0.0000 R=    0.0000 C=    0.0000
 XYZ=    3.1271    4.1028   -7.1377 Q=    0.4100 A=    0.0000 R=    0.0000 C=    0.0000
 XYZ=    3.2359    2.8853   -8.2205 Q=    0.4100 A=    0.0000 R=    0.0000 C=    0.0000
 XYZ=   -2.3683   -9.5229    3.0781 Q=   -0.8200 A=    0.0000 R=    0.0000 C=    0.0000
 XYZ=   -1.5291   -9.2046    3.5191 Q=    0.4100 A=    0.0000 R=    0.0000 C=    0.0000
 XYZ=   -2.4777   -9.0616    2.1976 Q=    0.4100 A=    0.0000 R=    0.0000 C=    0.0000
 XYZ=   -1.6164   -5.1629   -9.4806 Q=   -0.8200 A=    0.0000 R=    0.0000 C=    0.0000
 XYZ=   -1.3400   -4.6061  -10.2640 Q=    0.4100 A=    0.0000 R=    0.0000 C=    0.0000
 XYZ=   -0.9362   -5.0752   -8.7528 Q=    0.4100 A=    0.0000 R=    0.0000 C=    0.0000
 XYZ=   -2.0524    0.8977    9.1944 Q=   -0.8200 A=    0.0000 R=    0.0000 C=    0.0000
 XYZ=   -1.5103    0.1571    8.7972 Q=    0.4100 A=    0.0000 R=    0.0000 C=    0.0000
 XYZ=   -3.0018    0.5995    9.2936 Q=    0.4100 A=    0.0000 R=    0.0000 C=    0.0000
 XYZ=    7.4321   -5.7007   -2.6570 Q=   -0.8200 A=    0.0000 R=    0.0000 C=    0.0000
 XYZ=    6.5478   -5.5835   -3.1089 Q=    0.4100 A=    0.0000 R=    0.0000 C=    0.0000
 XYZ=    8.1652   -5.6166   -3.3320 Q=    0.4100 A=    0.0000 R=    0.0000 C=    0.0000
 XYZ=    8.8868    3.9122    2.7622 Q=   -0.8200 A=    0.0000 R=    0.0000 C=    0.0000
 XYZ=    9.1222    3.6275    3.6916 Q=    0.4100 A=    0.0000 R=    0.0000 C=    0.0000
 XYZ=    8.0388    3.4631    2.4808 Q=    0.4100 A=    0.0000 R=    0.0000 C=    0.0000
 XYZ=   -1.7556    9.4026    2.5114 Q=   -0.8200 A=    0.0000 R=    0.0000 C=    0.0000
 XYZ=   -2.1323    9.0075    3.3493 Q=    0.4100 A=    0.0000 R=    0.0000 C=    0.0000
 XYZ=   -2.4136   10.0471    2.1217 Q=    0.4100 A=    0.0000 R=    0.0000 C=    0.0000
 XYZ=    5.0761   -1.2027   -7.7816 Q=   -0.8200 A=    0.0000 R=    0.0000 C=    0.0000
 XYZ=    4.9975   -2.0852   -7.3177 Q=    0.4100 A=    0.0000 R=    0.0000 C=    0.0000
 XYZ=    4.2984   -0.6252   -7.5333 Q=    0.4100 A=    0.0000 R=    0.0000 C=    0.0000
 XYZ=   -1.0842    8.1969    6.0176 Q=   -0.8200 A=    0.0000 R=    0.0000 C=    0.0000
 XYZ=   -1.5445    7.9795    5.1568 Q=    0.4100 A=    0.0000 R=    0.0000 C=    0.0000
 XYZ=   -1.7662    8.3184    6.7388 Q=    0.4100 A=    0.0000 R=    0.0000 C=    0.0000
 XYZ=    8.5472   -4.5777    1.4451 Q=   -0.8200 A=    0.0000 R=    0.0000 C=    0.0000
 XYZ=    7.8696   -4.1416    2.0373 Q=    0.4100 A=    0.0000 R=    0.0000 C=    0.0000
 XYZ=    8.2883   -4.4450    0.4884 Q=    0.4100 A=    0.0000 R=    0.0000 C=    0.0000
 XYZ=   -2.8788    8.6115    4.3626 Q=   -0.8200 A=    0.0000 R=    0.0000 C=    0.0000
 XYZ=   -3.3667    7.8106    4.7099 Q=    0.4100 A=    0.0000 R=    0.0000 C=    0.0000
 XYZ=   -3.2632    9.4392    4.7715 Q=    0.4100 A=    0.0000 R=    0.0000 C=    0.0000
 XYZ=   -3.3860   -2.6314    7.6814 Q=   -0.8200 A=    0.0000 R=    0.0000 C=    0.0000
 XYZ=   -2.6583   -2.1031    8.1189 Q=    0.4100 A=    0.0000 R=    0.0000 C=    0.0000
 XYZ=   -3.6302   -3.4075    8.2629 Q=    0.4100 A=    0.0000 R=    0.0000 C=    0.0000
 XYZ=    7.5778    6.1667    3.2431 Q=   -0.8200 A=    0.0000 R=    0.0000 C=    0.0000
 XYZ=    6.6576    5.7946    3.3650 Q=    0.4100 A=    0.0000 R=    0.0000 C=    0.0000
 XYZ=    8.1757    5.4598    2.8651 Q=    0.4100 A=    0.0000 R=    0.0000 C=    0.0000
 XYZ=   -6.0819   -3.0225    5.3875 Q=   -0.8200 A=    0.0000 R=    0.0000 C=    0.0000
 XYZ=   -6.7023   -2.2961    5.0918 Q=    0.4100 A=    0.0000 R=    0.0000 C=    0.0000
 XYZ=   -5.3967   -2.6430    6.0093 Q=    0.4100 A=    0.0000 R=    0.0000 C=    0.0000
 XYZ=   -1.3253   -6.7867    6.5370 Q=   -0.8200 A=    0.0000 R=    0.0000 C=    0.0000
 XYZ=   -1.0466   -6.2249    7.3159 Q=    0.4100 A=    0.0000 R=    0.0000 C=    0.0000
 XYZ=   -2.1858   -7.2494    6.7508 Q=    0.4100 A=    0.0000 R=    0.0000 C=    0.0000
 XYZ=   -3.0977    5.5802   -7.6868 Q=   -0.8200 A=    0.0000 R=    0.0000 C=    0.0000
 XYZ=   -2.8726    6.5414   -7.5270 Q=    0.4100 A=    0.0000 R=    0.0000 C=    0.0000
 XYZ=   -3.9925    5.5165   -8.1288 Q=    0.4100 A=    0.0000 R=    0.0000 C=    0.0000
 XYZ=    3.9309    1.6357   -8.0938 Q=   -0.8200 A=    0.0000 R=    0.0000 C=    0.0000
 XYZ=    4.8928    1.8669   -7.9483 Q=    0.4100 A=    0.0000 R=    0.0000 C=    0.0000
 XYZ=    3.7540    1.5469   -9.0740 Q=    0.4100 A=    0.0000 R=    0.0000 C=    0.0000
 XYZ=    8.9062   -0.6026   -1.4693 Q=   -0.8200 A=    0.0000 R=    0.0000 C=    0.0000
 XYZ=    8.6518    0.3553   -1.3359 Q=    0.4100 A=    0.0000 R=    0.0000 C=    0.0000
 XYZ=    9.3987   -0.9319   -0.6637 Q=    0.4100 A=    0.0000 R=    0.0000 C=    0.0000
 XYZ=   -0.9700    4.7517    8.3626 Q=   -0.8200 A=    0.0000 R=    0.0000 C=    0.0000
 XYZ=   -0.0520    5.0846    8.1469 Q=    0.4100 A=    0.0000 R=    0.0000 C=    0.0000
 XYZ=   -0.9092    3.8281    8.7412 Q=    0.4100 A=    0.0000 R=    0.0000 C=    0.0000
 XYZ=    8.3137   -4.4358   -0.8676 Q=   -0.8200 A=    0.0000 R=    0.0000 C=    0.0000
 XYZ=    9.2955   -4.3860   -1.0509 Q=    0.4100 A=    0.0000 R=    0.0000 C=    0.0000
 XYZ=    7.8681   -4.9751   -1.5821 Q=    0.4100 A=    0.0000 R=    0.0000 C=    0.0000
 XYZ=    0.8932   -4.1474    9.1003 Q=   -0.8200 A=    0.0000 R=    0.0000 C=    0.0000
 XYZ=    1.3018   -4.0542    8.1923 Q=    0.4100 A=    0.0000 R=    0.0000 C=    0.0000
 XYZ=    1.4658   -4.7428    9.6639 Q=    0.4100 A=    0.0000 R=    0.0000 C=    0.0000
 XYZ=   -5.9207   -8.1142    1.8532 Q=   -0.8200 A=    0.0000 R=    0.0000 C=    0.0000
 XYZ=   -6.4552   -7.2692    1.8689 Q=    0.4100 A=    0.0000 R=    0.0000 C=    0.0000
 XYZ=   -6.0145   -8.5843    2.7309 Q=    0.4100 A=    0.0000 R=    0.0000 C=    0.0000
 XYZ=    2.2146   -7.7745   -7.7411 Q=   -0.8200 A=    0.0000 R=    0.0000 C=    0.0000
 XYZ=    1.5800   -7.9749   -6.9946 Q=    0.4100 A=    0.0000 R=    0.0000 C=    0.0000
 XYZ=    3.1483   -7.7408   -7.3847 Q=    0.4100 A=    0.0000 R=    0.0000 C=    0.0000
 XYZ=   -2.3036  -10.6676   -1.3687 Q=   -0.8200 A=    0.0000 R=    0.0000 C=    0.0000
 XYZ=   -2.1912  -11.2767   -2.1538 Q=    0.4100 A=    0.0000 R=    0.0000 C=    0.0000
 XYZ=   -3.1816  -10.1938   -1.4376 Q=    0.4100 A=    0.0000 R=    0.0000 C=    0.0000
 XYZ=    2.2896   -5.5519   -8.4838 Q=   -0.8200 A=    0.0000 R=    0.0000 C=    0.0000
 XYZ=    2.1469   -6.5191   -8.2733 Q=    0.4100 A=    0.0000 R=    0.0000 C=    0.0000
 XYZ=    3.1993   -5.2743   -8.1747 Q=    0.4100 A=    0.0000 R=    0.0000 C=    0.0000
 XYZ=    0.7136   10.0909    3.4084 Q=   -0.8200 A=    0.0000 R=    0.0000 C=    0.0000
 XYZ=   -0.1763    9.8345    3.0311 Q=    0.4100 A=    0.0000 R=    0.0000 C=    0.0000
 XYZ=    0.8080    9.7095    4.3280 Q=    0.4100 A=    0.0000 R=    0.0000 C=    0.0000
 XYZ=   -0.4953    2.6837    9.3933 Q=   -0.8200 A=    0.0000 R=    0.0000 C=    0.0000
 XYZ=   -1.2254    2.0094    9.2823 Q=    0.4100 A=    0.0000 R=    0.0000 C=    0.0000
 XYZ=   -0.3004    2.8068   10.3664 Q=    0.4100 A=    0.0000 R=    0.0000 C=    0.0000
 XYZ=    4.6814   -5.1032   -8.0006 Q=   -0.8200 A=    0.0000 R=    0.0000 C=    0.0000
 XYZ=    5.3067   -5.1041   -8.7810 Q=    0.4100 A=    0.0000 R=    0.0000 C=    0.0000
 XYZ=    4.9986   -4.4426   -7.3202 Q=    0.4100 A=    0.0000 R=    0.0000 C=    0.0000
 XYZ=    5.7704    4.7878   -5.3406 Q=   -0.8200 A=    0.0000 R=    0.0000 C=    0.0000
 XYZ=    5.7829    5.7517   -5.6068 Q=    0.4100 A=    0.0000 R=    0.0000 C=    0.0000
 XYZ=    6.5452    4.3159   -5.7613 Q=    0.4100 A=    0.0000 R=    0.0000 C=    0.0000
 XYZ=    6.8686   -0.9633    6.8180 Q=   -0.8200 A=    0.0000 R=    0.0000 C=    0.0000
 XYZ=    7.1481   -0.4987    7.6583 Q=    0.4100 A=    0.0000 R=    0.0000 C=    0.0000
 XYZ=    7.4912   -1.7242    6.6351 Q=    0.4100 A=    0.0000 R=    0.0000 C=    0.0000
 XYZ=    0.2169  -10.2635    1.2733 Q=   -0.8200 A=    0.0000 R=    0.0000 C=    0.0000
 XYZ=    0.6847  -10.6600    2.0632 Q=    0.4100 A=    0.0000 R=    0.0000 C=    0.0000
 XYZ=   -0.4609  -10.9122    0.9272 Q=    0.4100 A=    0.0000 R=    0.0000 C=    0.0000
 XYZ=   -9.6144    2.1964   -1.7522 Q=   -0.8200 A=    0.0000 R=    0.0000 C=    0.0000
 XYZ=  -10.6020    2.3223   -1.8461 Q=    0.4100 A=    0.0000 R=    0.0000 C=    0.0000
 XYZ=   -9.2096    3.0207   -1.3562 Q=    0.4100 A=    0.0000 R=    0.0000 C=    0.0000
 XYZ=   -3.0048    6.0384    7.6644 Q=   -0.8200 A=    0.0000 R=    0.0000 C=    0.0000
 XYZ=   -3.2422    6.2820    6.7240 Q=    0.4100 A=    0.0000 R=    0.0000 C=    0.0000
 XYZ=   -2.3349    5.2959    7.6573 Q=    0.4100 A=    0.0000 R=    0.0000 C=    0.0000
 XYZ=   -9.0364    3.0628   -3.9940 Q=   -0.8200 A=    0.0000 R=    0.0000 C=    0.0000
 XYZ=   -9.2530    2.6906   -3.0914 Q=    0.4100 A=    0.0000 R=    0.0000 C=    0.0000
 XYZ=   -9.8554    3.0439   -4.5676 Q=    0.4100 A=    0.0000 R=    0.0000 C=    0.0000
 XYZ=   -8.9819    4.3422   -1.1704 Q=   -0.8200 A=    0.0000 R=    0.0000 C=    0.0000
 XYZ=   -8.3541    4.9684   -1.6329 Q=    0.4100 A=    0.0000 R=    0.0000 C=    0.0000
 XYZ=   -9.2556    4.7334   -0.2917 Q=    0.4100 A=    0.0000 R=    0.0000 C=    0.0000
 XYZ=   -5.3492   -4.8020   -8.5503 Q=   -0.8200 A=    0.0000 R=    0.0000 C=    0.0000
 XYZ=   -4.6884   -4.5164   -9.2444 Q=    0.4100 A=    0.0000 R=    0.0000 C=    0.0000
 XYZ=   -4.9642   -5.5517   -8.0120 Q=    0.4100 A=    0.0000 R=    0.0000 C=    0.0000
 XYZ=    6.7493   -7.4227   -1.3025 Q=   -0.8200 A=    0.0000 R=    0.0000 C=    0.0000
 XYZ=    7.4604   -7.9218   -0.8073 Q=    0.4100 A=    0.0000 R=    0.0000 C=    0.0000
 XYZ=    7.1730   -6.7280   -1.8838 Q=    0.4100 A=    0.0000 R=    0.0000 C=    0.0000
 XYZ=   -9.4057    1.8044    2.7630 Q=   -0.8200 A=    0.0000 R=    0.0000 C=    0.0000
 XYZ=   -8.4358    1.6007    2.8964 Q=    0.4100 A=    0.0000 R=    0.0000 C=    0.0000
 XYZ=   -9.8266    1.0794    2.2177 Q=    0.4100 A=    0.0000 R=    0.0000 C=    0.0000
 XYZ=   -1.8370    0.6076  -10.8931 Q=   -0.8200 A=    0.0000 R=    0.0000 C=    0.0000
 XYZ=   -1.3766   -0.0762  -10.3269 Q=    0.4100 A=    0.0000 R=    0.0000 C=    0.0000
 XYZ=   -2.6830    0.2211  -11.2605 Q=    0.4100 A=    0.0000 R=    0.0000 C=    0.0000
 XYZ=   -9.7796   -0.4216    1.7744 Q=   -0.8200 A=    0.0000 R=    0.0000 C=    0.0000
 XYZ=   -9.4764   -0.0279    0.9066 Q=    0.4100 A=    0.0000 R=    0.0000 C=    0.0000
 XYZ=   -8.9911   -0.7902    2.2668 Q=    0.4100 A=    0.0000 R=    0.0000 C=    0.0000
 XYZ=    1.5411   -0.4703  -10.4836 Q=   -0.8200 A=    0.0000 R=    0.0000 C=    0.0000
 XYZ=    2.1324   -1.2475  -10.6994 Q=    0.4100 A=    0.0000 R=    0.0000 C=    0.0000
 XYZ=    0.6540   -0.8047  -10.1655 Q=    0.4100 A=    0.0000 R=    0.0000 C=    0.0000
 XYZ=   -6.7996    0.0807    6.5766 Q=   -0.8200 A=    0.0000 R=    0.0000 C=    0.0000
 XYZ=   -7.5269   -0.4987    6.2087 Q=    0.4100 A=    0.0000 R=    0.0000 C=    0.0000
 XYZ=   -5.9882   -0.4759    6.7551 Q=    0.4100 A=    0.0000 R=    0.0000 C=    0.0000
 XYZ=   -8.0088   -2.0192    4.8172 Q=   -0.8200 A=    0.0000 R=    0.0000 C=    0.0000
 XYZ=   -7.8192   -1.5466    3.9566 Q=    0.4100 A=    0.0000 R=    0.0000 C=    0.0000
 XYZ=   -8.7750   -2.6490    4.6899 Q=    0.4100 A=    0.0000 R=    0.0000 C=    0.0000
 XYZ=   -6.4198    8.6738    2.3794 Q=   -0.8200 A=    0.0000 R=    0.0000 C=    0.0000
 XYZ=   -6.4598    7.6906    2.5577 Q=    0.4100 A=    0.0000 R=    0.0000 C=    0.0000
 XYZ=   -6.1136    9.1498    3.2039 Q=    0.4100 A=    0.0000 R=    0.0000 C=    0.0000
 XYZ=   -8.0998    3.7390   -7.0197 Q=   -0.8200 A=    0.0000 R=    0.0000 C=    0.0000
 XYZ=   -8.3542    4.3382   -6.2605 Q=    0.4100 A=    0.0000 R=    0.0000 C=    0.0000
 XYZ=   -7.1062    3.7476   -7.1325 Q=    0.4100 A=    0.0000 R=    0.0000 C=    0.0000
 XYZ=   -2.4632   -7.2223   -8.3892 Q=   -0.8200 A=    0.0000 R=    0.0000 C=    0.0000
 XYZ=   -2.1595   -6.4501   -8.9474 Q=    0.4100 A=    0.0000 R=    0.0000 C=    0.0000
 XYZ=   -1.9696   -8.0472   -8.6649 Q=    0.4100 A=    0.0000 R=    0.0000 C=    0.0000
 XYZ=    0.9050    9.1584    5.5333 Q=   -0.8200 A=    0.0000 R=    0.0000 C=    0.0000
 XYZ=    1.6405    8.4899    5.6441 Q=    0.4100 A=    0.0000 R=    0.0000 C=    0.0000
 XYZ=    0.0333    8.7401    5.7884 Q=    0.4100 A=    0.0000 R=    0.0000 C=    0.0000
 XYZ=    9.7717    3.4549   -0.8785 Q=   -0.8200 A=    0.0000 R=    0.0000 C=    0.0000
 XYZ=    9.1469    2.6892   -0.7260 Q=    0.4100 A=    0.0000 R=    0.0000 C=    0.0000
 XYZ=   10.1904    3.7214   -0.0103 Q=    0.4100 A=    0.0000 R=    0.0000 C=    0.0000
 XYZ=    9.4204    2.9151    4.9498 Q=   -0.8200 A=    0.0000 R=    0.0000 C=    0.0000
 XYZ=    8.7817    2.3259    4.4549 Q=    0.4100 A=    0.0000 R=    0.0000 C=    0.0000
 XYZ=   10.1444    2.3562    5.3543 Q=    0.4100 A=    0.0000 R=    0.0000 C=    0.0000
 XYZ=    3.2323    3.1512   10.2945 Q=   -0.8200 A=    0.0000 R=    0.0000 C=    0.0000
 XYZ=    4.1769    3.2796    9.9922 Q=    0.4100 A=    0.0000 R=    0.0000 C=    0.0000
 XYZ=    2.7062    2.7117    9.5664 Q=    0.4100 A=    0.0000 R=    0.0000 C=    0.0000
 XYZ=    1.5193   -4.2444  -10.3022 Q=   -0.8200 A=    0.0000 R=    0.0000 C=    0.0000
 XYZ=    2.2500   -3.5743  -10.4334 Q=    0.4100 A=    0.0000 R=    0.0000 C=    0.0000
 XYZ=    1.7449   -4.8364   -9.5285 Q=    0.4100 A=    0.0000 R=    0.0000 C=    0.0000
 XYZ=   -1.7537   10.3005   -4.0554 Q=   -0.8200 A=    0.0000 R=    0.0000 C=    0.0000
 XYZ=   -2.4262    9.5711   -4.1811 Q=    0.4100 A=    0.0000 R=    0.0000 C=    0.0000
 XYZ=   -1.6487   10.4926   -3.0796 Q=    0.4100 A=    0.0000 R=    0.0000 C=    0.0000
 XYZ=   -6.6627   -5.2139    5.4866 Q=   -0.8200 A=    0.0000 R=    0.0000 C=    0.0000
 XYZ=   -7.4431   -5.3886    4.8862 Q=    0.4100 A=    0.0000 R=    0.0000 C=    0.0000
 XYZ=   -6.4576   -4.2352    5.4903 Q=    0.4100 A=    0.0000 R=    0.0000 C=    0.0000
 XYZ=    8.3116   -6.9333    2.1762 Q=   -0.8200 A=    0.0000 R=    0.0000 C=    0.0000
 XYZ=    8.5906   -6.0019    1.9423 Q=    0.4100 A=    0.0000 R=    0.0000 C=    0.0000
 XYZ=    7.3469   -6.9359    2.4398 Q=    0.4100 A=    0.0000 R=    0.0000 C=    0.0000
 XYZ=    1.5005   11.7036   -0.3264 Q=   -0.8200 A=    0.0000 R=    0.0000 C=    0.0000
 XYZ=    2.4037   12.1321   -0.3504 Q=    0.4100 A=    0.0000 R=    0.0000 C=    0.0000
 XYZ=    1.5869   10.7315   -0.5447 Q=    0.4100 A=    0.0000 R=    0.0000 C=    0.0000
 XYZ=   -1.2125   -5.4556    8.7409 Q=   -0.8200 A=    0.0000 R=    0.0000 C=    0.0000
 XYZ=   -0.5253   -4.7333    8.6627 Q=    0.4100 A=    0.0000 R=    0.0000 C=    0.0000
 XYZ=   -2.1261   -5.0492    8.7282 Q=    0.4100 A=    0.0000 R=    0.0000 C=    0.0000
 XYZ=  -11.0344    0.0840   -2.0026 Q=   -0.8200 A=    0.0000 R=    0.0000 C=    0.0000
 XYZ=  -11.7126    0.7503   -1.6927 Q=    0.4100 A=    0.0000 R=    0.0000 C=    0.0000
 XYZ=  -10.1376    0.3236   -1.6306 Q=    0.4100 A=    0.0000 R=    0.0000 C=    0.0000
 XYZ=   -6.2419    1.0748   -9.0160 Q=   -0.8200 A=    0.0000 R=    0.0000 C=    0.0000
 XYZ=   -7.0924    1.5260   -8.7457 Q=    0.4100 A=    0.0000 R=    0.0000 C=    0.0000
 XYZ=   -6.4049    0.0943   -9.1253 Q=    0.4100 A=    0.0000 R=    0.0000 C=    0.0000
 XYZ=    7.8130    6.8158   -0.8040 Q=   -0.8200 A=    0.0000 R=    0.0000 C=    0.0000
 XYZ=    7.0556    7.1206   -1.3816 Q=    0.4100 A=    0.0000 R=    0.0000 C=    0.0000
 XYZ=    7.5555    6.9061    0.1581 Q=    0.4100 A=    0.0000 R=    0.0000 C=    0.0000
 XYZ=    6.4358    2.3414    7.9555 Q=   -0.8200 A=    0.0000 R=    0.0000 C=    0.0000
 XYZ=    7.2067    2.8024    7.5160 Q=    0.4100 A=    0.0000 R=    0.0000 C=    0.0000
 XYZ=    6.1243    2.8835    8.7360 Q=    0.4100 A=    0.0000 R=    0.0000 C=    0.0000
 XYZ=   -8.7141    5.2791   -4.7587 Q=   -0.8200 A=    0.0000 R=    0.0000 C=    0.0000
 XYZ=   -8.3169    5.9661   -4.1501 Q=    0.4100 A=    0.0000 R=    0.0000 C=    0.0000
 XYZ=   -8.7604    4.4002   -4.2839 Q=    0.4100 A=    0.0000 R=    0.0000 C=    0.0000
 XYZ=   -3.5895   -7.5541    6.7170 Q=   -0.8200 A=    0.0000 R=    0.0000 C=    0.0000
 XYZ=   -4.0869   -7.3691    5.8694 Q=    0.4100 A=    0.0000 R=    0.0000 C=    0.0000
 XYZ=   -3.9450   -6.9696    7.4464 Q=    0.4100 A=    0.0000 R=    0.0000 C=    0.0000
 XYZ=   -7.5611    5.6657    5.3353 Q=   -0.8200 A=    0.0000 R=    0.0000 C=    0.0000
 XYZ=   -7.0546    4.8073    5.4166 Q=    0.4100 A=    0.0000 R=    0.0000 C=    0.0000
 XYZ=   -7.0356    6.4040    5.7581 Q=    0.4100 A=    0.0000 R=    0.0000 C=    0.0000
 XYZ=   -3.6983   -4.1618  -10.0927 Q=   -0.8200 A=    0.0000 R=    0.0000 C=    0.0000
 XYZ=   -2.7974   -4.5689   -9.9425 Q=    0.4100 A=    0.0000 R=    0.0000 C=    0.0000
 XYZ=   -3.7477   -3.7955  -11.0220 Q=    0.4100 A=    0.0000 R=    0.0000 C=    0.0000
 XYZ=    4.6029   -7.4136   -6.9591 Q=   -0.8200 A=    0.0000 R=    0.0000 C=    0.0000
 XYZ=    4.6836   -6.5424   -7.4435 Q=    0.4100 A=    0.0000 R=    0.0000 C=    0.0000
 XYZ=    5.3808   -7.9975   -7.1915 Q=    0.4100 A=    0.0000 R=    0.0000 C=    0.0000
 XYZ=   10.0841   -1.0135    0.3315 Q=   -0.8200 A=    0.0000 R=    0.0000 C=    0.0000
 XYZ=   10.2411   -1.9459    0.6571 Q=    0.4100 A=    0.0000 R=    0.0000 C=    0.0000
 XYZ=    9.8386   -0.4277    1.1040 Q=    0.4100 A=    0.0000 R=    0.0000 C=    0.0000
 XYZ=    8.2634    4.9154   -1.9959 Q=   -0.8200 A=    0.0000 R=    0.0000 C=    0.0000
 XYZ=    8.9279    4.3077   -1.5611 Q=    0.4100 A=    0.0000 R=    0.0000 C=    0.0000
 XYZ=    8.1924    5.7627   -1.4695 Q=    0.4100 A=    0.0000 R=    0.0000 C=    0.0000
 XYZ=   -6.2664    9.0078   -0.0337 Q=   -0.8200 A=    0.0000 R=    0.0000 C=    0.0000
 XYZ=   -6.7115    9.8313   -0.3855 Q=    0.4100 A=    0.0000 R=    0.0000 C=    0.0000
 XYZ=   -6.3798    8.9659    0.9590 Q=    0.4100 A=    0.0000 R=    0.0000 C=    0.0000
 XYZ=    7.0757    7.7088    1.3901 Q=   -0.8200 A=    0.0000 R=    0.0000 C=    0.0000
 XYZ=    7.6689    8.5106    1.4633 Q=    0.4100 A=    0.0000 R=    0.0000 C=    0.0000
 XYZ=    7.1872    7.1365    2.2026 Q=    0.4100 A=    0.0000 R=    0.0000 C=    0.0000
 XYZ=    0.0601   -2.2772   10.1512 Q=   -0.8200 A=    0.0000 R=    0.0000 C=    0.0000
 XYZ=    0.6250   -2.9746    9.7100 Q=    0.4100 A=    0.0000 R=    0.0000 C=    0.0000
 XYZ=   -0.5780   -2.7163   10.7837 Q=    0.4100 A=    0.0000 R=    0.0000 C=    0.0000
 XYZ=   -9.1202    4.1577    1.7693 Q=   -0.8200 A=    0.0000 R=    0.0000 C=    0.0000
 XYZ=   -9.9669    4.6632    1.9354 Q=    0.4100 A=    0.0000 R=    0.0000 C=    0.0000
 XYZ=   -9.2559    3.1947    2.0021 Q=    0.4100 A=    0.0000 R=    0.0000 C=    0.0000
 XYZ=   -8.4223   -5.6510    3.9235 Q=   -0.8200 A=    0.0000 R=    0.0000 C=    0.0000
 XYZ=   -7.9865   -5.8362    3.0426 Q=    0.4100 A=    0.0000 R=    0.0000 C=    0.0000
 XYZ=   -9.0899   -6.3685    4.1224 Q=    0.4100 A=    0.0000 R=    0.0000 C=    0.0000
 XYZ=   -1.1610  -11.8502    0.2792 Q=   -0.8200 A=    0.0000 R=    0.0000 C=    0.0000
 XYZ=   -1.7402  -11.3744   -0.3828 Q=    0.4100 A=    0.0000 R=    0.0000 C=    0.0000
 XYZ=   -0.9167  -12.7514   -0.0788 Q=    0.4100 A=    0.0000 R=    0.0000 C=    0.0000
 XYZ=   -7.6227   -9.1825    0.8044 Q=   -0.8200 A=    0.0000 R=    0.0000 C=    0.0000
 XYZ=   -8.1731   -8.5041    0.3177 Q=    0.4100 A=    0.0000 R=    0.0000 C=    0.0000
 XYZ=   -6.8235   -8.7363    1.2072 Q=    0.4100 A=    0.0000 R=    0.0000 C=    0.0000
 XYZ=   -0.5867   -3.3951  -10.9287 Q=   -0.8200 A=    0.0000 R=    0.0000 C=    0.0000
 XYZ=    0.2848   -3.7190  -10.5605 Q=    0.4100 A=    0.0000 R=    0.0000 C=    0.0000
 XYZ=   -0.5277   -3.3406  -11.9256 Q=    0.4100 A=    0.0000 R=    0.0000 C=    0.0000
 XYZ=   -6.5690   -1.2009   -9.1521 Q=   -0.8200 A=    0.0000 R=    0.0000 C=    0.0000
 XYZ=   -7.5280   -1.0137   -9.3650 Q=    0.4100 A=    0.0000 R=    0.0000 C=    0.0000
 XYZ=   -6.3265   -2.1135   -9.4815 Q=    0.4100 A=    0.0000 R=    0.0000 C=    0.0000
 XYZ=    2.3590    3.6163  -10.6749 Q=   -0.8200 A=    0.0000 R=    0.0000 C=    0.0000
 XYZ=    2.3141    3.7286   -9.6822 Q=    0.4100 A=    0.0000 R=    0.0000 C=    0.0000
 XYZ=    2.4596    4.5122  -11.1075 Q=    0.4100 A=    0.0000 R=    0.0000 C=    0.0000
 XYZ=   -6.9149   -8.9712   -3.1365 Q=   -0.8200 A=    0.0000 R=    0.0000 C=    0.0000
 XYZ=   -6.5611   -9.8255   -2.7556 Q=    0.4100 A=    0.0000 R=    0.0000 C=    0.0000
 XYZ=   -7.3370   -9.1519   -4.0249 Q=    0.4100 A=    0.0000 R=    0.0000 C=    0.0000
 XYZ=    7.7535    0.3312   -5.3942 Q=   -0.8200 A=    0.0000 R=    0.0000 C=    0.0000
 XYZ=    8.4252    1.0683   -5.3188 Q=    0.4100 A=    0.0000 R=    0.0000 C=    0.0000
 XYZ=    8.1631   -0.5261   -5.0821 Q=    0.4100 A=    0.0000 R=    0.0000 C=    0.0000
 XYZ=   -6.1778   -8.6405    4.0424 Q=   -0.8200 A=    0.0000 R=    0.0000 C=    0.0000
 XYZ=   -5.9475   -7.6894    4.2488 Q=    0.4100 A=    0.0000 R=    0.0000 C=    0.0000
 XYZ=   -5.4078   -9.2303    4.2862 Q=    0.4100 A=    0.0000 R=    0.0000 C=    0.0000
 XYZ=   10.3972   -3.1593    0.8698 Q=   -0.8200 A=    0.0000 R=    0.0000 C=    0.0000
 XYZ=    9.5892   -3.7154    1.0645 Q=    0.4100 A=    0.0000 R=    0.0000 C=    0.0000
 XYZ=   11.2112   -3.7402    0.8771 Q=    0.4100 A=    0.0000 R=    0.0000 C=    0.0000
 XYZ=   -4.2636   -9.8937    4.4896 Q=   -0.8200 A=    0.0000 R=    0.0000 C=    0.0000
 XYZ=   -4.6503  -10.7416    4.1267 Q=    0.4100 A=    0.0000 R=    0.0000 C=    0.0000
 XYZ=   -3.4508   -9.6457    3.9624 Q=    0.4100 A=    0.0000 R=    0.0000 C=    0.0000
 XYZ=    3.0837    1.4429  -10.6459 Q=   -0.8200 A=    0.0000 R=    0.0000 C=    0.0000
 XYZ=    2.7459    2.3647  -10.8365 Q=    0.4100 A=    0.0000 R=    0.0000 C=    0.0000
 XYZ=    2.3091    0.8280  -10.4981 Q=    0.4100 A=    0.0000 R=    0.0000 C=    0.0000
 XYZ=    7.4253    0.3957    8.7325 Q=   -0.8200 A=    0.0000 R=    0.0000 C=    0.0000
 XYZ=    6.8608    1.1433    8.3825 Q=    0.4100 A=    0.0000 R=    0.0000 C=    0.0000
 XYZ=    8.3666    0.7137    8.8460 Q=    0.4100 A=    0.0000 R=    0.0000 C=    0.0000
 XYZ=   -1.9716  -11.8454   -3.3916 Q=   -0.8200 A=    0.0000 R=    0.0000 C=    0.0000
 XYZ=   -1.2300  -11.3507   -3.8449 Q=    0.4100 A=    0.0000 R=    0.0000 C=    0.0000
 XYZ=   -2.6750  -12.0796   -4.0627 Q=    0.4100 A=    0.0000 R=    0.0000 C=    0.0000
 XYZ=   -4.2470    3.5245  -10.5543 Q=   -0.8200 A=    0.0000 R=    0.0000 C=    0.0000
 XYZ=   -4.6996    2.6438  -10.6941 Q=    0.4100 A=    0.0000 R=    0.0000 C=    0.0000
 XYZ=   -3.2718    3.3757  -10.3903 Q=    0.4100 A=    0.0000 R=    0.0000 C=    0.0000
 XYZ=   -4.2013   10.9384   -0.2356 Q=   -0.8200 A=    0.0000 R=    0.0000 C=    0.0000
 XYZ=   -4.4730   11.7958   -0.6727 Q=    0.4100 A=    0.0000 R=    0.0000 C=    0.0000
 XYZ=   -4.9498   10.2786   -0.3022 Q=    0.4100 A=    0.0000 R=    0.0000 C=    0.0000
 XYZ=    7.3330   -0.1512   -7.6157 Q=   -0.8200 A=    0.0000 R=    0.0000 C=    0.0000
 XYZ=    7.5769    0.1423   -6.6913 Q=    0.4100 A=    0.0000 R=    0.0000 C=    0.0000
 XYZ=    6.3948   -0.4974   -7.6187 Q=    0.4100 A=    0.0000 R=    0.0000 C=    0.0000
 XYZ=    6.1864    2.0274   -7.6172 Q=   -0.8200 A=    0.0000 R=    0.0000 C=    0.0000
 XYZ=    6.7350    2.8031   -7.3051 Q=    0.4100 A=    0.0000 R=    0.0000 C=    0.0000
 XYZ=    6.7373    1.1936   -7.5811 Q=    0.4100 A=    0.0000 R=    0.0000 C=    0.0000
 XYZ=   -5.2275    5.0719   -8.9910 Q=   -0.8200 A=    0.0000 R=    0.0000 C=    0.0000
 XYZ=   -5.5404    5.8185   -9.5781 Q=    0.4100 A=    0.0000 R=    0.0000 C=    0.0000
 XYZ=   -4.8189    4.3538   -9.5545 Q=    0.4100 A=    0.0000 R=    0.0000 C=    0.0000
 XYZ=   -8.9252   -7.5427   -2.3894 Q=   -0.8200 A=    0.0000 R=    0.0000 C=    0.0000
 XYZ=   -9.6753   -7.6860   -3.0351 Q=    0.4100 A=    0.0000 R=    0.0000 C=    0.0000
 XYZ=   -8.1474   -8.1148   -2.6498 Q=    0.4100 A=    0.0000 R=    0.0000 C=    0.0000
 XYZ=   -8.7997   -7.2162   -0.1299 Q=   -0.8200 A=    0.0000 R=    0.0000 C=    0.0000
 XYZ=   -8.7881   -7.3677   -1.1183 Q=    0.4100 A=    0.0000 R=    0.0000 C=    0.0000
 XYZ=   -9.6204   -6.7016    0.1187 Q=    0.4100 A=    0.0000 R=    0.0000 C=    0.0000
 XYZ=    1.5927   11.8950    2.1107 Q=   -0.8200 A=    0.0000 R=    0.0000 C=    0.0000
 XYZ=    1.3947   11.0898    2.6697 Q=    0.4100 A=    0.0000 R=    0.0000 C=    0.0000
 XYZ=    1.4235   11.6824    1.1484 Q=    0.4100 A=    0.0000 R=    0.0000 C=    0.0000
 XYZ=   -3.2384   11.1698    1.9167 Q=   -0.8200 A=    0.0000 R=    0.0000 C=    0.0000
 XYZ=   -3.9331   11.4462    2.5808 Q=    0.4100 A=    0.0000 R=    0.0000 C=    0.0000
 XYZ=   -3.6787   10.9486    1.0464 Q=    0.4100 A=    0.0000 R=    0.0000 C=    0.0000
 XYZ=   -0.9461    4.2439  -11.3506 Q=   -0.8200 A=    0.0000 R=    0.0000 C=    0.0000
 XYZ=   -1.3606    3.5460  -10.7666 Q=    0.4100 A=    0.0000 R=    0.0000 C=    0.0000
 XYZ=   -0.2311    3.8271  -11.9120 Q=    0.4100 A=    0.0000 R=    0.0000 C=    0.0000
 XYZ=   -5.1500    5.4036    8.3202 Q=   -0.8200 A=    0.0000 R=    0.0000 C=    0.0000
 XYZ=   -5.7271    6.2200    8.3404 Q=    0.4100 A=    0.0000 R=    0.0000 C=    0.0000
 XYZ=   -4.2302    5.6529    8.0172 Q=    0.4100 A=    0.0000 R=    0.0000 C=    0.0000
 XYZ=   11.2664    1.7177    1.1589 Q=   -0.8200 A=    0.0000 R=    0.0000 C=    0.0000
 XYZ=   10.4097    1.2246    1.3106 Q=    0.4100 A=    0.0000 R=    0.0000 C=    0.0000
 XYZ=   11.0820    2.6994    1.1115 Q=    0.4100 A=    0.0000 R=    0.0000 C=    0.0000
 XYZ=   -5.4536    1.6548  -11.0554 Q=   -0.8200 A=    0.0000 R=    0.0000 C=    0.0000
 XYZ=   -5.7512    1.3416  -10.1535 Q=    0.4100 A=    0.0000 R=    0.0000 C=    0.0000
 XYZ=   -6.2523    1.7882  -11.6422 Q=    0.4100 A=    0.0000 R=    0.0000 C=    0.0000
 XYZ=    0.4578    5.9202  -10.3812 Q=   -0.8200 A=    0.0000 R=    0.0000 C=    0.0000
 XYZ=   -0.0933    5.1286  -10.6454 Q=    0.4100 A=    0.0000 R=    0.0000 C=    0.0000
 XYZ=    0.5921    5.9169   -9.3902 Q=    0.4100 A=    0.0000 R=    0.0000 C=    0.0000
 XYZ=   -2.1510  -11.8185    2.6555 Q=   -0.8200 A=    0.0000 R=    0.0000 C=    0.0000
 XYZ=   -2.3181  -10.8483    2.8311 Q=    0.4100 A=    0.0000 R=    0.0000 C=    0.0000
 XYZ=   -1.7399  -11.9274    1.7505 Q=    0.4100 A=    0.0000 R=    0.0000 C=    0.0000
 XYZ=    5.0438   -1.7130  -10.0484 Q=   -0.8200 A=    0.0000 R=    0.0000 C=    0.0000
 XYZ=    5.2429   -1.3406   -9.1419 Q=    0.4100 A=    0.0000 R=    0.0000 C=    0.0000
 XYZ=    5.8725   -2.1226  -10.4299 Q=    0.4100 A=    0.0000 R=    0.0000 C=    0.0000
 XYZ=   -2.0451    5.7874   10.1795 Q=   -0.8200 A=    0.0000 R=    0.0000 C=    0.0000
 XYZ=   -2.4233    6.6770    9.9236 Q=    0.4100 A=    0.0000 R=    0.0000 C=    0.0000
 XYZ=   -1.5526    5.3981    9.4011 Q=    0.4100 A=    0.0000 R=    0.0000 C=    0.0000
 XYZ=    6.7778    5.2281    7.3059 Q=   -0.8200 A=    0.0000 R=    0.0000 C=    0.0000
 XYZ=    7.3168    6.0546    7.1430 Q=    0.4100 A=    0.0000 R=    0.0000 C=    0.0000
 XYZ=    7.3786    4.4289    7.2848 Q=    0.4100 A=    0.0000 R=    0.0000 C=    0.0000
 XYZ=    0.3991    0.7243  -11.9185 Q=   -0.8200 A=    0.0000 R=    0.0000 C=    0.0000
 XYZ=    0.9227    0.1974  -11.2490 Q=    0.4100 A=    0.0000 R=    0.0000 C=    0.0000
 XYZ=   -0.4969    0.9514  -11.5369 Q=    0.4100 A=    0.0000 R=    0.0000 C=    0.0000
 XYZ=    8.4345   -8.1609    0.0473 Q=   -0.8200 A=    0.0000 R=    0.0000 C=    0.0000
 XYZ=    8.3630   -7.4988    0.7933 Q=    0.4100 A=    0.0000 R=    0.0000 C=    0.0000
 XYZ=    8.8395   -9.0081    0.3913 Q=    0.4100 A=    0.0000 R=    0.0000 C=    0.0000
 XYZ=   10.6758   -0.9026   -2.8832 Q=   -0.8200 A=    0.0000 R=    0.0000 C=    0.0000
 XYZ=    9.8431   -0.8196   -2.3356 Q=    0.4100 A=    0.0000 R=    0.0000 C=    0.0000
 XYZ=   11.4470   -1.1224   -2.2857 Q=    0.4100 A=    0.0000 R=    0.0000 C=    0.0000
 XYZ=   10.6932    3.9912    1.2328 Q=   -0.8200 A=    0.0000 R=    0.0000 C=    0.0000
 XYZ=    9.9536    4.1263    1.8922 Q=    0.4100 A=    0.0000 R=    0.0000 C=    0.0000
 XYZ=   11.4720    4.5666    1.4829 Q=    0.4100 A=    0.0000 R=    0.0000 C=    0.0000
 XYZ=    5.5542   -0.4191    9.7738 Q=   -0.8200 A=    0.0000 R=    0.0000 C=    0.0000
 XYZ=    6.3776    0.0371    9.4363 Q=    0.4100 A=    0.0000 R=    0.0000 C=    0.0000
 XYZ=    5.8104   -1.2623   10.2467 Q=    0.4100 A=    0.0000 R=    0.0000 C=    0.0000
 XYZ=    9.0335   -1.6431   -4.7164 Q=   -0.8200 A=    0.0000 R=    0.0000 C=    0.0000
 XYZ=    9.5206   -1.2540   -3.9345 Q=    0.4100 A=    0.0000 R=    0.0000 C=    0.0000
 XYZ=    9.0795   -2.6412   -4.6746 Q=    0.4100 A=    0.0000 R=    0.0000 C=    0.0000
 XYZ=   -4.4985   10.7555   -4.8468 Q=   -0.8200 A=    0.0000 R=    0.0000 C=    0.0000
 XYZ=   -4.2538   10.2089   -4.0459 Q=    0.4100 A=    0.0000 R=    0.0000 C=    0.0000
 XYZ=   -3.7010   10.8490   -5.4428 Q=    0.4100 A=    0.0000 R=    0.0000 C=    0.0000
 XYZ=   -5.9558    3.2798    8.1663 Q=   -0.8200 A=    0.0000 R=    0.0000 C=    0.0000
 XYZ=   -6.2747    3.0484    9.0855 Q=    0.4100 A=    0.0000 R=    0.0000 C=    0.0000
 XYZ=   -5.5249    4.1821    8.1803 Q=    0.4100 A=    0.0000 R=    0.0000 C=    0.0000
 XYZ=    8.1841    3.4648    7.1894 Q=   -0.8200 A=    0.0000 R=    0.0000 C=    0.0000
 XYZ=    8.8040    3.2047    6.4490 Q=    0.4100 A=    0.0000 R=    0.0000 C=    0.0000
 XYZ=    8.7088    3.6077    8.0287 Q=    0.4100 A=    0.0000 R=    0.0000 C=    0.0000
 XYZ=    9.2732    4.8377   -4.0733 Q=   -0.8200 A=    0.0000 R=    0.0000 C=    0.0000
 XYZ=    8.7744    4.9501   -3.2139 Q=    0.4100 A=    0.0000 R=    0.0000 C=    0.0000
 XYZ=   10.2369    5.0641   -3.9314 Q=    0.4100 A=    0.0000 R=    0.0000 C=    0.0000
 XYZ=   -8.5626    2.1964   -8.8417 Q=   -0.8200 A=    0.0000 R=    0.0000 C=    0.0000
 XYZ=   -8.8000    2.7237   -9.6575 Q=    0.4100 A=    0.0000 R=    0.0000 C=    0.0000
 XYZ=   -8.3875    2.8209   -8.0804 Q=    0.4100 A=    0.0000 R=    0.0000 C=    0.0000
 XYZ=   -6.4317   -3.5292  -10.4250 Q=   -0.8200 A=    0.0000 R=    0.0000 C=    0.0000
 XYZ=   -6.0929   -3.9787   -9.5985 Q=    0.4100 A=    0.0000 R=    0.0000 C=    0.0000
 XYZ=   -7.1340   -4.0998  -10.8507 Q=    0.4100 A=    0.0000 R=    0.0000 C=    0.0000
 XYZ=    2.9221   -2.4625  -10.8759 Q=   -0.8200 A=    0.0000 R=    0.0000 C=    0.0000
 XYZ=    3.7717   -2.2346  -10.4002 Q=    0.4100 A=    0.0000 R=    0.0000 C=    0.0000
 XYZ=    3.0058   -2.2193  -11.8423 Q=    0.4100 A=    0.0000 R=    0.0000 C=    0.0000
 XYZ=   -6.8848   -7.0453   -8.3102 Q=   -0.8200 A=    0.0000 R=    0.0000 C=    0.0000
 XYZ=   -5.9628   -7.3811   -8.1177 Q=    0.4100 A=    0.0000 R=    0.0000 C=    0.0000
 XYZ=   -6.8947   -6.0470   -8.2526 Q=    0.4100 A=    0.0000 R=    0.0000 C=    0.0000
 XYZ=    0.0389  -12.0038   -6.1843 Q=   -0.8200 A=    0.0000 R=    0.0000 C=    0.0000
 XYZ=    0.3193  -12.8894   -5.8139 Q=    0.4100 A=    0.0000 R=    0.0000 C=    0.0000
 XYZ=   -0.1925  -11.3864   -5.4324 Q=    0.4100 A=    0.0000 R=    0.0000 C=    0.0000
 XYZ=    2.0294   -9.2166   -9.4610 Q=   -0.8200 A=    0.0000 R=    0.0000 C=    0.0000
 XYZ=    2.0595   -8.7062  -10.3205 Q=    0.4100 A=    0.0000 R=    0.0000 C=    0.0000
 XYZ=    2.0862   -8.5790   -8.6927 Q=    0.4100 A=    0.0000 R=    0.0000 C=    0.0000
 XYZ=   -3.4833   -4.5010    9.1928 Q=   -0.8200 A=    0.0000 R=    0.0000 C=    0.0000
 XYZ=   -4.0866   -5.2650    8.9637 Q=    0.4100 A=    0.0000 R=    0.0000 C=    0.0000
 XYZ=   -3.2720   -4.5246   10.1699 Q=    0.4100 A=    0.0000 R=    0.0000 C=    0.0000
 XYZ=    2.0355    5.2555   10.3244 Q=   -0.8200 A=    0.0000 R=    0.0000 C=    0.0000
 XYZ=    1.1132    5.2534   10.7108 Q=    0.4100 A=    0.0000 R=    0.0000 C=    0.0000
 XYZ=    2.4428    4.3482   10.4294 Q=    0.4100 A=    0.0000 R=    0.0000 C=    0.0000
 XYZ=  -11.3721   -1.9422    1.1440 Q=   -0.8200 A=    0.0000 R=    0.0000 C=    0.0000
 XYZ=  -10.7349   -1.2055    1.3707 Q=    0.4100 A=    0.0000 R=    0.0000 C=    0.0000
 XYZ=  -11.1093   -2.7729    1.6347 Q=    0.4100 A=    0.0000 R=    0.0000 C=    0.0000
 XYZ=   -6.1665    7.4065    6.1918 Q=   -0.8200 A=    0.0000 R=    0.0000 C=    0.0000
 XYZ=   -6.1247    8.2531    5.6611 Q=    0.4100 A=    0.0000 R=    0.0000 C=    0.0000
 XYZ=   -6.3292    7.6241    7.1542 Q=    0.4100 A=    0.0000 R=    0.0000 C=    0.0000
 XYZ=   -1.4566   -9.5133   -8.3914 Q=   -0.8200 A=    0.0000 R=    0.0000 C=    0.0000
 XYZ=   -0.7375   -9.9071   -8.9640 Q=    0.4100 A=    0.0000 R=    0.0000 C=    0.0000
 XYZ=   -1.9381  -10.2459   -7.9102 Q=    0.4100 A=    0.0000 R=    0.0000 C=    0.0000
 XYZ=   -3.9370   -0.0911  -11.4510 Q=   -0.8200 A=    0.0000 R=    0.0000 C=    0.0000
 XYZ=   -4.5228    0.7022  -11.2847 Q=    0.4100 A=    0.0000 R=    0.0000 C=    0.0000
 XYZ=   -4.4624   -0.8008  -11.9204 Q=    0.4100 A=    0.0000 R=    0.0000 C=    0.0000
 XYZ=   -6.6234   -5.2059    7.8926 Q=   -0.8200 A=    0.0000 R=    0.0000 C=    0.0000
 XYZ=   -6.4939   -5.3491    6.9114 Q=    0.4100 A=    0.0000 R=    0.0000 C=    0.0000
 XYZ=   -6.5693   -4.2285    8.0967 Q=    0.4100 A=    0.0000 R=    0.0000 C=    0.0000
 XYZ=    8.8899    7.3599    4.7373 Q=   -0.8200 A=    0.0000 R=    0.0000 C=    0.0000
 XYZ=    9.5248    6.6638    5.0727 Q=    0.4100 A=    0.0000 R=    0.0000 C=    0.0000
 XYZ=    8.2056    6.9306    4.1479 Q=    0.4100 A=    0.0000 R=    0.0000 C=    0.0000
 XYZ=   -7.7055    1.5752    8.1234 Q=   -0.8200 A=    0.0000 R=    0.0000 C=    0.0000
 XYZ=   -7.3750    0.8150    7.5641 Q=    0.4100 A=    0.0000 R=    0.0000 C=    0.0000
 XYZ=   -7.1497    2.3871    7.9442 Q=    0.4100 A=    0.0000 R=    0.0000 C=    0.0000
 XYZ=   -2.8363    7.7852    9.2382 Q=   -0.8200 A=    0.0000 R=    0.0000 C=    0.0000
 XYZ=   -2.8992    7.1231    8.4915 Q=    0.4100 A=    0.0000 R=    0.0000 C=    0.0000
 XYZ=   -3.7463    8.1474    9.4400 Q=    0.4100 A=    0.0000 R=    0.0000 C=    0.0000
 XYZ=    5.8115    6.0528    9.3395 Q=   -0.8200 A=    0.0000 R=    0.0000 C=    0.0000
 XYZ=    6.6660    6.3434    9.7700 Q=    0.4100 A=    0.0000 R=    0.0000 C=    0.0000
 XYZ=    5.9891    5.7878    8.3917 Q=    0.4100 A=    0.0000 R=    0.0000 C=    0.0000
 XYZ=    7.6385    3.6674   -6.5531 Q=   -0.8200 A=    0.0000 R=    0.0000 C=    0.0000
 XYZ=    8.0185    4.4656   -7.0205 Q=    0.4100 A=    0.0000 R=    0.0000 C=    0.0000
 XYZ=    8.2973    3.3299   -5.8808 Q=    0.4100 A=    0.0000 R=    0.0000 C=    0.0000
 XYZ=    5.6386    3.5088    9.8065 Q=   -0.8200 A=    0.0000 R=    0.0000 C=    0.0000
 XYZ=    6.1050    3.2284   10.6455 Q=    0.4100 A=    0.0000 R=    0.0000 C=    0.0000
 XYZ=    5.8087    4.4800    9.6394 Q=    0.4100 A=    0.0000 R=    0.0000 C=    0.0000
 XYZ=   -9.7726   -3.8002    4.4361 Q=   -0.8200 A=    0.0000 R=    0.0000 C=    0.0000
 XYZ=   -9.1664   -4.5809    4.2847 Q=    0.4100 A=    0.0000 R=    0.0000 C=    0.0000
 XYZ=  -10.3276   -3.9625    5.2521 Q=    0.4100 A=    0.0000 R=    0.0000 C=    0.0000
 XYZ=  -11.9035   -0.8644   -4.2196 Q=   -0.8200 A=    0.0000 R=    0.0000 C=    0.0000
 XYZ=  -11.7414   -0.1543   -4.9048 Q=    0.4100 A=    0.0000 R=    0.0000 C=    0.0000
 XYZ=  -11.4482   -0.6133   -3.3654 Q=    0.4100 A=    0.0000 R=    0.0000 C=    0.0000
 XYZ=    8.9975    2.6589   -4.9757 Q=   -0.8200 A=    0.0000 R=    0.0000 C=    0.0000
 XYZ=    9.1159    3.5532   -4.5442 Q=    0.4100 A=    0.0000 R=    0.0000 C=    0.0000
 XYZ=    9.5926    1.9915   -4.5281 Q=    0.4100 A=    0.0000 R=    0.0000 C=    0.0000
 XYZ=   -6.1836  -11.0848   -2.0314 Q=   -0.8200 A=    0.0000 R=    0.0000 C=    0.0000
 XYZ=   -6.2520  -11.9041   -2.6006 Q=    0.4100 A=    0.0000 R=    0.0000 C=    0.0000
 XYZ=   -6.7078  -11.2185   -1.1903 Q=    0.4100 A=    0.0000 R=    0.0000 C=    0.0000
 XYZ=    7.5233   -4.0536   -7.7294 Q=   -0.8200 A=    0.0000 R=    0.0000 C=    0.0000
 XYZ=    8.3706   -4.4323   -7.3569 Q=    0.4100 A=    0.0000 R=    0.0000 C=    0.0000
 XYZ=    7.1786   -4.6544   -8.4507 Q=    0.4100 A=    0.0000 R=    0.0000 C=    0.0000
 XYZ=    0.9515   -0.8957   12.5110 Q=   -0.8200 A=    0.0000 R=    0.0000 C=    0.0000
 XYZ=    0.8186   -1.1535   11.5539 Q=    0.4100 A=    0.0000 R=    0.0000 C=    0.0000
 XYZ=    0.1473   -0.3988   12.8371 Q=    0.4100 A=    0.0000 R=    0.0000 C=    0.0000
[...]
    40  H    0.000014   0.000003   0.000000   0.000000   0.000000   0.000000
    41  H   -0.000118   0.000082   0.000000   0.000000   0.000000   0.000000
    42  O    0.000000   0.000000  -0.002501   0.000638  -0.000049  -0.000222
    43  H    0.000000   0.000000   0.000171  -0.000024  -0.000005  -0.000001
    44  H    0.000000   0.000000  -0.000529   0.000617   0.000031   0.000034
    45  O   -0.000001  -0.000032   0.000000   0.000000   0.000000   0.000000
    46  H    0.000000   0.000046   0.000000   0.000000   0.000000   0.000000
    47  H    0.000000   0.000002   0.000000   0.000000   0.000000   0.000000
    48  O    0.000000   0.000000   0.000000   0.000000   0.000000  -0.058716
    49  H    0.000000   0.000000   0.000000   0.000000   0.000000   0.021642
    50  H    0.000000   0.000000   0.000000   0.000000   0.000000   0.001540
              31         32         33         34         35         36
     1  C    0.000005   0.000486  -0.000005  -0.000013   0.000008  -0.000229
     2  H    0.000000   0.000000   0.000000   0.000000   0.000000  -0.000001
     3  H    0.000000   0.000000   0.000000   0.000000   0.000000  -0.000001
     4  C   -0.000278   0.002289   0.001156   0.000313  -0.000022   0.001405
     5  H    0.000000   0.000000   0.000000   0.000000   0.000000  -0.000019
     6  C    0.000043  -0.000608   0.001282   0.000183  -0.000156  -0.001658
     7  H    0.000010   0.000801   0.000004  -0.000002   0.000000   0.000006
     8  O    0.000009  -0.000878  -0.000337  -0.000051   0.000005   0.000006
     9  O   -0.000438   0.031585  -0.000052  -0.000004   0.000000   0.000013
    10  H    0.000105   0.001892   0.000002   0.000000   0.000000  -0.000004
    11  H   -0.000179  -0.000893   0.000000   0.000000   0.000000   0.000000
    12  O    0.000000  -0.000015   0.000000   0.000000   0.000000   0.000010
    13  H    0.000000   0.000000   0.000000   0.000000   0.000000   0.000002
    14  H    0.000000   0.000003   0.000000   0.000000   0.000000   0.000000
    15  O    0.000000   0.000000   0.000000   0.000000   0.000000  -0.003772
    16  H    0.000000   0.000000   0.000000   0.000000   0.000000  -0.000243
    17  H    0.000000   0.000000   0.000000   0.000000   0.000000   0.007782
    18  O    0.000342  -0.001835  -0.000051   0.000025   0.000000   0.000000
    19  H    0.000078   0.000800   0.000001   0.000001   0.000000   0.000000
    20  H   -0.000022   0.000130  -0.000014  -0.000002   0.000000   0.000000
    21  O    0.000000   0.000000   0.000000   0.000000   0.000000  -0.157021
    22  H    0.000000   0.000000   0.000000   0.000000   0.000000   0.001410
    23  H    0.000000   0.000000   0.000000   0.000000   0.000000   0.038294
    24  O    0.000000   0.000000   0.000000   0.000000   0.000000  -0.000378
    25  H    0.000000   0.000000   0.000000   0.000000   0.000000   0.000007
    26  H    0.000000   0.000000   0.000000   0.000000   0.000000   0.000231
    27  O    0.000000   0.000000  -0.000005   0.000002   0.000000   0.000000
    28  H    0.000000   0.000001  -0.000001  -0.000001   0.000000   0.000000
    29  H    0.000000   0.000000   0.000000   0.000000   0.000000   0.000000
    30  O    0.222908   0.115451  -0.000084   0.000000   0.000000   0.000003
    31  H    0.173227  -0.009293  -0.000002   0.000000   0.000000   0.000000
    32  H   -0.009293   0.207129   0.000011   0.000000   0.000000  -0.000001
    33  O   -0.000002   0.000011   8.640512   0.227228   0.231080   0.000000
    34  H    0.000000   0.000000   0.227228   0.266031  -0.012693   0.000000
    35  H    0.000000   0.000000   0.231080  -0.012693   0.201879   0.000000
    36  O    0.000000  -0.000001   0.000000   0.000000   0.000000   8.775657
    37  H    0.000000   0.000000   0.000000   0.000000   0.000000   0.213431
    38  H    0.000000   0.000000   0.000000   0.000000   0.000000   0.220631
    39  O    0.000000   0.000000   0.000000   0.000000   0.000000   0.000000
    40  H    0.000000   0.000000   0.000000   0.000000   0.000000   0.000000
    41  H    0.000000   0.000000   0.000000   0.000000   0.000000   0.000000
    42  O   -0.000019   0.000110   0.000000   0.000000   0.000000   0.000000
    43  H    0.000000   0.000000   0.000000   0.000000   0.000000   0.000000
    44  H   -0.000004  -0.000021   0.000000   0.000000   0.000000   0.000000
    45  O    0.000000   0.000000   0.000000   0.000000   0.000000  -0.003086
    46  H    0.000000   0.000000   0.000000   0.000000   0.000000   0.004499
    47  H    0.000000   0.000000   0.000000   0.000000   0.000000   0.000250
    48  O    0.000246   0.000825  -0.003190   0.000035   0.000011   0.000002
    49  H   -0.001130   0.000764   0.000054  -0.000002   0.000001   0.000000
    50  H   -0.000061  -0.000028   0.000516   0.000000  -0.000007   0.000000
              37         38         39         40         41         42
     1  C    0.000000  -0.000064  -0.001307   0.000062  -0.000655   0.000223
     2  H    0.000000   0.000000  -0.000105   0.000001  -0.000010   0.000001
     3  H    0.000000   0.000000   0.000002   0.000000   0.000000   0.000000
     4  C    0.000111   0.000352   0.000562  -0.000025   0.000469   0.001526
     5  H    0.000000   0.000000   0.000000   0.000000   0.000000   0.000000
     6  C   -0.000081  -0.000222  -0.001094   0.000083  -0.000173   0.001182
     7  H    0.000000   0.000000   0.000000   0.000000   0.000000  -0.000005
     8  O    0.000000  -0.000003   0.000359  -0.000006   0.000041  -0.004447
     9  O    0.000000  -0.000003   0.000013   0.000000  -0.000001   0.000772
    10  H    0.000000   0.000000  -0.000008   0.000000   0.000000  -0.000386
    11  H    0.000000   0.000000   0.000000   0.000000   0.000000  -0.002401
    12  O    0.000000  -0.000002  -0.066097   0.003129   0.023560   0.000109
    13  H    0.000000   0.000000   0.005805  -0.000214   0.000015  -0.000010
    14  H    0.000000   0.000000   0.002863   0.000015  -0.000379   0.000026
    15  O    0.000151   0.000059   0.000116  -0.000030  -0.000176   0.000000
    16  H   -0.000001   0.000001   0.000002   0.000000   0.000000   0.000000
    17  H   -0.000127  -0.000518  -0.000001   0.000000   0.000000   0.000000
    18  O    0.000000   0.000000   0.000012   0.000000   0.000007  -0.100515
    19  H    0.000000   0.000000   0.000000   0.000000   0.000000   0.006324
    20  H    0.000000   0.000000   0.000000   0.000000   0.000000   0.001638
    21  O    0.003757   0.004143   0.000000   0.000000  -0.000001   0.000000
    22  H   -0.000077  -0.000025   0.000000   0.000000   0.000000   0.000000
    23  H   -0.002315  -0.001964   0.000000   0.000000   0.000000   0.000000
    24  O    0.000000   0.000034  -0.013795  -0.001565  -0.002727   0.000009
    25  H    0.000000   0.000000   0.002264   0.000014  -0.000118   0.000000
    26  H    0.000001  -0.000018   0.000339   0.000003   0.000082   0.000000
    27  O    0.000000   0.000000   0.000002   0.000000   0.000000  -0.002501
    28  H    0.000000   0.000000   0.000000   0.000000   0.000000   0.000638
    29  H    0.000000   0.000000   0.000000   0.000000   0.000000  -0.000049
    30  O    0.000000   0.000000   0.000000   0.000000   0.000000  -0.000222
    31  H    0.000000   0.000000   0.000000   0.000000   0.000000  -0.000019
    32  H    0.000000   0.000000   0.000000   0.000000   0.000000   0.000110
    33  O    0.000000   0.000000   0.000000   0.000000   0.000000   0.000000
    34  H    0.000000   0.000000   0.000000   0.000000   0.000000   0.000000
    35  H    0.000000   0.000000   0.000000   0.000000   0.000000   0.000000
    36  O    0.213431   0.220631   0.000000   0.000000   0.000000   0.000000
    37  H    0.188505  -0.011415   0.000000   0.000000   0.000000   0.000000
    38  H   -0.011415   0.241830   0.000000   0.000000   0.000000   0.000000
    39  O    0.000000   0.000000   8.978827   0.201151   0.151675  -0.000025
    40  H    0.000000   0.000000   0.201151   0.221189  -0.006525   0.000000
    41  H    0.000000   0.000000   0.151675  -0.006525   0.193495   0.000004
    42  O    0.000000   0.000000  -0.000025   0.000000   0.000004   9.025215
    43  H    0.000000   0.000000   0.000007   0.000000   0.000000   0.210976
    44  H    0.000000   0.000000   0.000001   0.000000   0.000000   0.120751
    45  O   -0.000038  -0.000031   0.000000   0.000000   0.000000   0.000000
    46  H   -0.000084  -0.000081   0.000000   0.000000   0.000000   0.000000
    47  H    0.000000  -0.000001   0.000000   0.000000   0.000000   0.000000
    48  O    0.000000   0.000000   0.000000   0.000000   0.000000   0.000000
    49  H    0.000000   0.000000   0.000000   0.000000   0.000000   0.000000
    50  H    0.000000   0.000000   0.000000   0.000000   0.000000   0.000000
              43         44         45         46         47         48
     1  C   -0.000007  -0.000148   0.000383  -0.000093  -0.000004  -0.000209
     2  H    0.000000   0.000000   0.000000   0.000000   0.000000   0.000000
     3  H    0.000000   0.000000  -0.000002   0.000000   0.000000   0.000000
     4  C   -0.000003   0.000138  -0.000147   0.000218   0.000017   0.018692
     5  H    0.000000   0.000000  -0.000001  -0.000001   0.000000  -0.000055
     6  C    0.000085  -0.000596  -0.000185   0.000020  -0.000003  -0.013265
     7  H    0.000000  -0.000002   0.000000   0.000000   0.000000   0.001593
     8  O    0.000024   0.002827  -0.000001   0.000000   0.000000   0.000153
     9  O   -0.000485   0.003063   0.000000   0.000000   0.000000  -0.003926
    10  H   -0.000007  -0.000435   0.000000   0.000000   0.000000   0.000150
    11  H   -0.000027  -0.000203   0.000000   0.000000   0.000000  -0.000012
    12  O   -0.000012   0.000131  -0.000001   0.000001   0.000000  -0.000001
    13  H    0.000000   0.000000   0.000001   0.000000   0.000000   0.000000
    14  H   -0.000006  -0.000040   0.000000   0.000000   0.000000   0.000000
    15  O    0.000000   0.000000  -0.010841  -0.002360  -0.000874   0.000000
    16  H    0.000000   0.000000   0.001370  -0.000040  -0.000075   0.000000
    17  H    0.000000   0.000000  -0.002110  -0.002399  -0.000082   0.000000
    18  O    0.003520   0.059610   0.000000   0.000000   0.000000  -0.000184
    19  H   -0.000118  -0.004530   0.000000   0.000000   0.000000   0.000080
    20  H    0.000014  -0.003760   0.000000   0.000000   0.000000   0.000007
    21  O    0.000000   0.000000  -0.042707   0.020910   0.000925   0.000002
    22  H    0.000000   0.000000   0.001847   0.002579   0.000062   0.000000
    23  H    0.000000   0.000000  -0.002600  -0.004758  -0.000158   0.000000
    24  O    0.000000   0.000000  -0.000150   0.000008   0.000000   0.000000
    25  H    0.000000   0.000000  -0.000001   0.000000   0.000000   0.000000
    26  H    0.000000   0.000000  -0.000032   0.000046   0.000002   0.000000
    27  O    0.000171  -0.000529   0.000000   0.000000   0.000000   0.000000
    28  H   -0.000024   0.000617   0.000000   0.000000   0.000000   0.000000
    29  H   -0.000005   0.000031   0.000000   0.000000   0.000000   0.000000
    30  O   -0.000001   0.000034   0.000000   0.000000   0.000000  -0.058716
    31  H    0.000000  -0.000004   0.000000   0.000000   0.000000   0.000246
    32  H    0.000000  -0.000021   0.000000   0.000000   0.000000   0.000825
    33  O    0.000000   0.000000   0.000000   0.000000   0.000000  -0.003190
    34  H    0.000000   0.000000   0.000000   0.000000   0.000000   0.000035
    35  H    0.000000   0.000000   0.000000   0.000000   0.000000   0.000011
    36  O    0.000000   0.000000  -0.003086   0.004499   0.000250   0.000002
    37  H    0.000000   0.000000  -0.000038  -0.000084   0.000000   0.000000
    38  H    0.000000   0.000000  -0.000031  -0.000081  -0.000001   0.000000
    39  O    0.000007   0.000001   0.000000   0.000000   0.000000   0.000000
    40  H    0.000000   0.000000   0.000000   0.000000   0.000000   0.000000
    41  H    0.000000   0.000000   0.000000   0.000000   0.000000   0.000000
    42  O    0.210976   0.120751   0.000000   0.000000   0.000000   0.000000
    43  H    0.174287  -0.003229   0.000000   0.000000   0.000000   0.000000
    44  H   -0.003229   0.223733   0.000000   0.000000   0.000000   0.000001
    45  O    0.000000   0.000000   9.027219   0.113623   0.193217   0.000000
    46  H    0.000000   0.000000   0.113623   0.199294  -0.001537   0.000000
    47  H    0.000000   0.000000   0.193217  -0.001537   0.180135   0.000000
    48  O    0.000000   0.000001   0.000000   0.000000   0.000000   8.779830
    49  H    0.000000   0.000000   0.000000   0.000000   0.000000   0.207200
    50  H    0.000000   0.000000   0.000000   0.000000   0.000000   0.211457
              49         50
     1  C   -0.000004   0.000007
     2  H    0.000000   0.000000
     3  H    0.000000   0.000000
     4  C    0.009842  -0.000491
     5  H   -0.000002   0.000000
     6  C   -0.005271  -0.000100
     7  H    0.001864  -0.000039
     8  O   -0.000736   0.000005
     9  O   -0.000584   0.000056
    10  H   -0.000037  -0.000001
    11  H    0.000019   0.000000
    12  O    0.000000   0.000000
    13  H    0.000000   0.000000
    14  H    0.000000   0.000000
    15  O    0.000000   0.000000
    16  H    0.000000   0.000000
    17  H    0.000000   0.000000
    18  O   -0.000087   0.000005
    19  H   -0.000031   0.000000
    20  H   -0.000001   0.000000
    21  O    0.000000   0.000000
    22  H    0.000000   0.000000
    23  H    0.000000   0.000000
    24  O    0.000000   0.000000
    25  H    0.000000   0.000000
    26  H    0.000000   0.000000
    27  O    0.000000   0.000000
    28  H    0.000000   0.000000
    29  H    0.000000   0.000000
    30  O    0.021642   0.001540
    31  H   -0.001130  -0.000061
    32  H    0.000764  -0.000028
    33  O    0.000054   0.000516
    34  H   -0.000002   0.000000
    35  H    0.000001  -0.000007
    36  O    0.000000   0.000000
    37  H    0.000000   0.000000
    38  H    0.000000   0.000000
    39  O    0.000000   0.000000
    40  H    0.000000   0.000000
    41  H    0.000000   0.000000
    42  O    0.000000   0.000000
    43  H    0.000000   0.000000
    44  H    0.000000   0.000000
    45  O    0.000000   0.000000
    46  H    0.000000   0.000000
    47  H    0.000000   0.000000
    48  O    0.207200   0.211457
    49  H    0.236617  -0.006999
    50  H   -0.006999   0.189981
 Mulliken charges:
               1
     1  C   -0.330759
     2  H    0.261792
     3  H    0.236373
     4  C   -0.208008
     5  H    0.215834
     6  C    0.127285
     7  H    0.193659
     8  O   -0.459928
     9  O   -1.349336
    10  H    0.540009
    11  H    0.722607
    12  O   -1.110398
    13  H    0.578260
    14  H    0.551654
    15  O   -1.162426
    16  H    0.587669
    17  H    0.616209
    18  O   -1.157379
    19  H    0.656063
    20  H    0.566730
    21  O   -1.320499
    22  H    0.625868
    23  H    0.631519
    24  O   -1.217746
    25  H    0.578971
    26  H    0.601909
    27  O   -1.150045
    28  H    0.547841
    29  H    0.608730
    30  O   -1.251113
    31  H    0.614452
    32  H    0.651296
    33  O   -1.098105
    34  H    0.518950
    35  H    0.579893
    36  O   -1.097226
    37  H    0.608183
    38  H    0.547295
    39  O   -1.261568
    40  H    0.582719
    41  H    0.641417
    42  O   -1.258923
    43  H    0.614840
    44  H    0.602562
    45  O   -1.275727
    46  H    0.670155
    47  H    0.628125
    48  O   -1.140726
    49  H    0.536882
    50  H    0.604157
 Sum of Mulliken charges =   0.00000
 Mulliken charges with hydrogens summed into heavy atoms:
               1
     1  C    0.167406
     4  C    0.007826
     6  C    0.320944
     8  O   -0.459928
     9  O   -0.086720
    12  O    0.019517
    15  O    0.041453
    18  O    0.065413
    21  O   -0.063112
    24  O   -0.036866
    27  O    0.006526
    30  O    0.014636
    33  O    0.000739
    36  O    0.058252
    39  O   -0.037431
    42  O   -0.041521
    45  O    0.022553
    48  O    0.000314
 Electronic spatial extent (au):  <R**2>=          12448.3319
 Charge=              0.0000 electrons
 Dipole moment (field-independent basis, Debye):
    X=             -1.4898    Y=             -9.6691    Z=             -2.2725  Tot=             10.0437
 Quadrupole moment (field-independent basis, Debye-Ang):
   XX=           -104.4923   YY=           -170.8265   ZZ=           -116.6864
   XY=             -1.0549   XZ=            -21.9761   YZ=             -7.2925
 Traceless Quadrupole moment (field-independent basis, Debye-Ang):
   XX=             26.1761   YY=            -40.1581   ZZ=             13.9820
   XY=             -1.0549   XZ=            -21.9761   YZ=             -7.2925
 Octapole moment (field-independent basis, Debye-Ang**2):
  XXX=            220.9617  YYY=           -151.4127  ZZZ=            -44.6964  XYY=            -90.0712
  XXY=              5.5081  XXZ=             97.0389  XZZ=              1.3918  YZZ=            -76.7224
  YYZ=            -87.6681  XYZ=            154.9290
 Hexadecapole moment (field-independent basis, Debye-Ang**3):
 XXXX=          -8299.4370 YYYY=          -5563.9058 ZZZZ=          -1506.1264 XXXY=           -774.0628
 XXXZ=           -900.9505 YYYX=            274.2373 YYYZ=            -82.7139 ZZZX=           -308.5921
 ZZZY=             75.6728 XXYY=          -1907.5265 XXZZ=          -1845.7314 YYZZ=           -985.6739
 XXYZ=           -161.6269 YYXZ=            -42.3461 ZZXY=           -395.2550
 N-N= 1.092700537466D+03 E-N=-6.147756888196D+03  KE= 1.249133141117D+03
 Leave Link  601 at Fri Sep 14 17:14:49 2018, MaxMem=    33554432 cpu:         4.5
 (Enter /usr/local/pacerepov1/gaussian/G09D01LINDA/g09/l9999.exe)

 Test job not archived.
 1\1\GINC-RICH133-B13-21-L\SP\RLC-wPBE TD-FC\6-31+G(d)\C3H32O15\ROOT\14
 -Sep-2018\0\\#p td=(nstates=15)/6-31+g(d) lc-wpbe charge\\Acroleina in
  Water\\0,1\C,0,0.485154,0.480443,-1.430142\H,0,1.461403,0.187773,-1.0
 55732\H,0,0.429244,0.878853,-2.437062\C,0,-0.605127,0.346563,-0.658432
 \H,0,-1.591686,0.632893,-1.012412\C,0,-0.508516,-0.199107,0.712798\H,0
 ,-1.458487,-0.272107,1.272438\O,0,0.544883,-0.561317,1.236519\O,0,0.20
 5991,-0.596082,3.544201\H,0,0.409801,-0.032832,2.743421\H,0,0.689181,-
 0.231142,4.340061\O,0,3.174441,1.362128,0.566861\H,0,2.816621,2.285678
 ,0.705081\H,0,2.507061,0.693578,0.894981\O,0,0.719531,4.128757,-0.3971
 59\H,0,1.201701,4.870277,-0.863729\H,0,-0.257679,4.337878,-0.360379\O,
 0,1.502331,-2.546712,2.908401\H,0,0.802461,-1.865782,3.124201\H,0,1.13
 7891,-3.463132,3.073771\O,0,-1.538629,4.636087,-0.412779\H,0,-2.420419
 ,4.200208,-0.593089\H,0,-1.534779,5.009098,0.515061\O,0,2.961211,3.865
 778,0.413791\H,0,3.586721,4.199378,-0.291499\H,0,2.017761,3.970368,0.0
 99071\O,0,3.129701,-4.512352,1.571591\H,0,2.383481,-3.880492,1.781321\
 H,0,3.433801,-4.959812,2.412621\O,0,-1.941869,-1.006532,4.397221\H,0,-
 1.823019,-1.809932,4.980721\H,0,-1.087889,-0.817402,3.912471\O,0,-2.81
 7799,-4.881162,1.239031\H,0,-1.851789,-5.001802,1.010311\H,0,-3.380599
 ,-5.131622,0.451251\O,0,-1.633119,5.374258,1.831991\H,0,-2.555079,5.04
 9298,2.042891\H,0,-0.970369,4.890677,2.403821\O,0,5.455601,1.920158,0.
 489531\H,0,5.773201,2.079728,-0.445189\H,0,4.514921,1.581388,0.468621\
 O,0,2.992211,-1.591672,4.511181\H,0,3.883781,-1.399702,4.100921\H,0,2.
 370921,-1.941182,3.809831\O,0,-1.153719,6.525418,-1.867819\H,0,-1.3718
 99,5.832367,-1.180689\H,0,-0.840119,7.358818,-1.412709\O,0,-4.028359,-
 1.441332,2.563491\H,0,-3.044079,-1.403622,2.736171\H,0,-4.358809,-2.37
 2092,2.720251\\Version=EM64L-G09RevD.01\State=1-A\HF=-1758.9251654\RMS
 D=8.600e-09\PG=C01 [X(C3H32O15)]\\@


 ACCORDING TO HEN3RY, LIFE IS MUCH LIKE A SEWER........
 YOU GET OUT OF IT JUST WHAT YOU PUT INTO IT...........
                         TOM LEHRER - (THE 3 IS SILENT)
 Job cpu time:       0 days  3 hours 18 minutes  5.3 seconds.
 File lengths (MBytes):  RWF=    792 Int=      0 D2E=      0 Chk=     96 Scr=      2
 Normal termination of Gaussian 09 at Fri Sep 14 17:14:54 2018.
