 Entering Gaussian System, Link 0=g09
 Input=Acroleina_water_15_73c.gjf
 Output=Acroleina_water_15_73c.log
 Initial command:
 /usr/local/pacerepov1/gaussian/G09D01LINDA/g09/l1.exe /nv/hp18/holiveira7/scratch/22411993/Gau-64600.inp -scrdir=/nv/hp18/holiveira7/scratch/22411993/
 Entering Link 1 = /usr/local/pacerepov1/gaussian/G09D01LINDA/g09/l1.exe PID=     64603.
  
 Copyright (c) 1988,1990,1992,1993,1995,1998,2003,2009,2013,
            Gaussian, Inc.  All Rights Reserved.
  
 This is part of the Gaussian(R) 09 program.  It is based on
 the Gaussian(R) 03 system (copyright 2003, Gaussian, Inc.),
 the Gaussian(R) 98 system (copyright 1998, Gaussian, Inc.),
 the Gaussian(R) 94 system (copyright 1995, Gaussian, Inc.),
 the Gaussian 92(TM) system (copyright 1992, Gaussian, Inc.),
 the Gaussian 90(TM) system (copyright 1990, Gaussian, Inc.),
 the Gaussian 88(TM) system (copyright 1988, Gaussian, Inc.),
 the Gaussian 86(TM) system (copyright 1986, Carnegie Mellon
 University), and the Gaussian 82(TM) system (copyright 1983,
 Carnegie Mellon University). Gaussian is a federally registered
 trademark of Gaussian, Inc.
  
 This software contains proprietary and confidential information,
 including trade secrets, belonging to Gaussian, Inc.
  
 This software is provided under written license and may be
 used, copied, transmitted, or stored only in accord with that
 written license.
  
 The following legend is applicable only to US Government
 contracts under FAR:
  
                    RESTRICTED RIGHTS LEGEND
  
 Use, reproduction and disclosure by the US Government is
 subject to restrictions as set forth in subparagraphs (a)
 and (c) of the Commercial Computer Software - Restricted
 Rights clause in FAR 52.227-19.
  
 Gaussian, Inc.
 340 Quinnipiac St., Bldg. 40, Wallingford CT 06492
  
  
 ---------------------------------------------------------------
 Warning -- This program may not be used in any manner that
 competes with the business of Gaussian, Inc. or will provide
 assistance to any competitor of Gaussian, Inc.  The licensee
 of this program is prohibited from giving any competitor of
 Gaussian, Inc. access to this program.  By using this program,
 the user acknowledges that Gaussian, Inc. is engaged in the
 business of creating and licensing software in the field of
 computational chemistry and represents and warrants to the
 licensee that it is not a competitor of Gaussian, Inc. and that
 it will not use this program in any manner prohibited above.
 ---------------------------------------------------------------
  

 Cite this work as:
 Gaussian 09, Revision D.01,
 M. J. Frisch, G. W. Trucks, H. B. Schlegel, G. E. Scuseria, 
 M. A. Robb, J. R. Cheeseman, G. Scalmani, V. Barone, B. Mennucci, 
 G. A. Petersson, H. Nakatsuji, M. Caricato, X. Li, H. P. Hratchian, 
 A. F. Izmaylov, J. Bloino, G. Zheng, J. L. Sonnenberg, M. Hada, 
 M. Ehara, K. Toyota, R. Fukuda, J. Hasegawa, M. Ishida, T. Nakajima, 
 Y. Honda, O. Kitao, H. Nakai, T. Vreven, J. A. Montgomery, Jr., 
 J. E. Peralta, F. Ogliaro, M. Bearpark, J. J. Heyd, E. Brothers, 
 K. N. Kudin, V. N. Staroverov, T. Keith, R. Kobayashi, J. Normand, 
 K. Raghavachari, A. Rendell, J. C. Burant, S. S. Iyengar, J. Tomasi, 
 M. Cossi, N. Rega, J. M. Millam, M. Klene, J. E. Knox, J. B. Cross, 
 V. Bakken, C. Adamo, J. Jaramillo, R. Gomperts, R. E. Stratmann, 
 O. Yazyev, A. J. Austin, R. Cammi, C. Pomelli, J. W. Ochterski, 
 R. L. Martin, K. Morokuma, V. G. Zakrzewski, G. A. Voth, 
 P. Salvador, J. J. Dannenberg, S. Dapprich, A. D. Daniels, 
 O. Farkas, J. B. Foresman, J. V. Ortiz, J. Cioslowski, 
 and D. J. Fox, Gaussian, Inc., Wallingford CT, 2013.
 
 ******************************************
 Gaussian 09:  EM64L-G09RevD.01 24-Apr-2013
                14-Sep-2018 
 ******************************************
 %chk=Acrolina_Din_73.chk
 %nprocshared=10
 Will use up to   10 processors via shared memory.
 -------------------------------------------
 #p td=(nstates=15)/6-31+g(d) lc-wpbe charge
 -------------------------------------------
 1/18=10,28=-2,38=1,125=101/1;
 2/12=2,17=6,18=5,40=1/2;
 3/5=1,6=6,7=11,11=9,16=1,25=1,30=1,74=-41/1,2,8,3;
 4//1;
 5/5=2,38=5/2;
 8/6=1,10=2,108=15/1;
 9/41=15,42=1,70=2/14;
 6/7=2,8=2,9=2,10=2/1;
 99/5=1,9=1/99;
 Leave Link    1 at Fri Sep 14 17:28:35 2018, MaxMem=           0 cpu:         2.6
 (Enter /usr/local/pacerepov1/gaussian/G09D01LINDA/g09/l101.exe)
 ------------------
 Acroleina in Water
 ------------------
 Symbolic Z-matrix:
 Charge =  0 Multiplicity = 1
 C                     0.48515   0.48044  -1.43014 
 H                     1.4614    0.18777  -1.05573 
 H                     0.42924   0.87885  -2.43706 
 C                    -0.60513   0.34656  -0.65843 
 H                    -1.59169   0.63289  -1.01241 
 C                    -0.50852  -0.19911   0.7128 
 H                    -1.45849  -0.27211   1.27244 
 O                     0.54488  -0.56132   1.23652 
 O                    -0.8072   -1.07907   3.25246 
 H                    -0.76512  -0.44972   2.47648 
 H                     0.0473   -1.02828   3.76947 
 O                    -2.04043   3.15248   0.75066 
 H                    -3.02743   3.25298   0.8764 
 H                    -1.72944   2.31894   1.20731 
 O                    -1.43529   3.53698  -1.46932 
 H                    -2.03301   3.02809  -2.08883 
 H                    -1.77167   3.4459   -0.532 
 O                     3.82215   1.32267   0.5144 
 H                     3.57264   2.20425   0.1136 
 H                     3.06339   0.98245   1.06989 
 O                    -3.72467  -1.0997    2.53715 
 H                    -2.99029  -0.949     1.87532 
 H                    -3.37294  -1.6263    3.31113 
 O                     1.10392  -3.54768   2.08978 
 H                     0.34728  -2.95891   2.37419 
 H                     0.88449  -4.4994    2.30438 
 O                     2.88995  -2.60935   3.42692 
 H                     3.79041  -2.49174   3.00811 
 H                     2.24063  -2.92909   2.73685 
 O                     1.006     3.54359  -1.60784 
 H                     1.1814    4.13101  -2.39788 
 H                     0.02204   3.50422  -1.43371 
 O                     1.22634  -1.24931   4.60862 
 H                     1.7637   -0.72453   5.26884 
 H                     1.83856  -1.66537   3.93624 
 O                    -3.81571   2.75581  -2.3184 
 H                    -4.0965    3.54232  -1.76833 
 H                    -4.41729   1.98105  -2.12364 
 O                    -2.66837  -2.2974    4.15017 
 H                    -2.31655  -3.10814   4.61808 
 H                    -1.90837  -1.79328   3.73994 
 O                     3.17035   3.17243  -0.77737 
 H                     3.73618   3.7544   -1.36145 
 H                     2.24592   3.11939  -1.15514 
 O                     3.55116  -5.19249   1.04126 
 H                     2.95165  -4.4136    1.22565 
 H                     3.76551  -5.65858   1.89964 
 O                     6.08797   0.95448   0.02692 
 H                     6.10196   1.12183  -0.95889 
 H                     5.14361   0.97604   0.35524 
 
 NAtoms=     50 NQM=       50 NQMF=       0 NMMI=      0 NMMIF=      0
                NMic=       0 NMicF=      0.
                    Isotopes and Nuclear Properties:
 (Nuclear quadrupole moments (NQMom) in fm**2, nuclear magnetic moments (NMagM)
  in nuclear magnetons)

  Atom         1           2           3           4           5           6           7           8           9          10
 IAtWgt=          12           1           1          12           1          12           1          16          16           1
 AtmWgt=  12.0000000   1.0078250   1.0078250  12.0000000   1.0078250  12.0000000   1.0078250  15.9949146  15.9949146   1.0078250
 NucSpn=           0           1           1           0           1           0           1           0           0           1
 AtZEff=   0.0000000   0.0000000   0.0000000   0.0000000   0.0000000   0.0000000   0.0000000   0.0000000   0.0000000   0.0000000
 NQMom=    0.0000000   0.0000000   0.0000000   0.0000000   0.0000000   0.0000000   0.0000000   0.0000000   0.0000000   0.0000000
 NMagM=    0.0000000   2.7928460   2.7928460   0.0000000   2.7928460   0.0000000   2.7928460   0.0000000   0.0000000   2.7928460
 AtZNuc=   6.0000000   1.0000000   1.0000000   6.0000000   1.0000000   6.0000000   1.0000000   8.0000000   8.0000000   1.0000000

  Atom        11          12          13          14          15          16          17          18          19          20
 IAtWgt=           1          16           1           1          16           1           1          16           1           1
 AtmWgt=   1.0078250  15.9949146   1.0078250   1.0078250  15.9949146   1.0078250   1.0078250  15.9949146   1.0078250   1.0078250
 NucSpn=           1           0           1           1           0           1           1           0           1           1
 AtZEff=   0.0000000   0.0000000   0.0000000   0.0000000   0.0000000   0.0000000   0.0000000   0.0000000   0.0000000   0.0000000
 NQMom=    0.0000000   0.0000000   0.0000000   0.0000000   0.0000000   0.0000000   0.0000000   0.0000000   0.0000000   0.0000000
 NMagM=    2.7928460   0.0000000   2.7928460   2.7928460   0.0000000   2.7928460   2.7928460   0.0000000   2.7928460   2.7928460
 AtZNuc=   1.0000000   8.0000000   1.0000000   1.0000000   8.0000000   1.0000000   1.0000000   8.0000000   1.0000000   1.0000000

  Atom        21          22          23          24          25          26          27          28          29          30
 IAtWgt=          16           1           1          16           1           1          16           1           1          16
 AtmWgt=  15.9949146   1.0078250   1.0078250  15.9949146   1.0078250   1.0078250  15.9949146   1.0078250   1.0078250  15.9949146
 NucSpn=           0           1           1           0           1           1           0           1           1           0
 AtZEff=   0.0000000   0.0000000   0.0000000   0.0000000   0.0000000   0.0000000   0.0000000   0.0000000   0.0000000   0.0000000
 NQMom=    0.0000000   0.0000000   0.0000000   0.0000000   0.0000000   0.0000000   0.0000000   0.0000000   0.0000000   0.0000000
 NMagM=    0.0000000   2.7928460   2.7928460   0.0000000   2.7928460   2.7928460   0.0000000   2.7928460   2.7928460   0.0000000
 AtZNuc=   8.0000000   1.0000000   1.0000000   8.0000000   1.0000000   1.0000000   8.0000000   1.0000000   1.0000000   8.0000000

  Atom        31          32          33          34          35          36          37          38          39          40
 IAtWgt=           1           1          16           1           1          16           1           1          16           1
 AtmWgt=   1.0078250   1.0078250  15.9949146   1.0078250   1.0078250  15.9949146   1.0078250   1.0078250  15.9949146   1.0078250
 NucSpn=           1           1           0           1           1           0           1           1           0           1
 AtZEff=   0.0000000   0.0000000   0.0000000   0.0000000   0.0000000   0.0000000   0.0000000   0.0000000   0.0000000   0.0000000
 NQMom=    0.0000000   0.0000000   0.0000000   0.0000000   0.0000000   0.0000000   0.0000000   0.0000000   0.0000000   0.0000000
 NMagM=    2.7928460   2.7928460   0.0000000   2.7928460   2.7928460   0.0000000   2.7928460   2.7928460   0.0000000   2.7928460
 AtZNuc=   1.0000000   1.0000000   8.0000000   1.0000000   1.0000000   8.0000000   1.0000000   1.0000000   8.0000000   1.0000000

  Atom        41          42          43          44          45          46          47          48          49          50
 IAtWgt=           1          16           1           1          16           1           1          16           1           1
 AtmWgt=   1.0078250  15.9949146   1.0078250   1.0078250  15.9949146   1.0078250   1.0078250  15.9949146   1.0078250   1.0078250
 NucSpn=           1           0           1           1           0           1           1           0           1           1
 AtZEff=   0.0000000   0.0000000   0.0000000   0.0000000   0.0000000   0.0000000   0.0000000   0.0000000   0.0000000   0.0000000
 NQMom=    0.0000000   0.0000000   0.0000000   0.0000000   0.0000000   0.0000000   0.0000000   0.0000000   0.0000000   0.0000000
 NMagM=    2.7928460   0.0000000   2.7928460   2.7928460   0.0000000   2.7928460   2.7928460   0.0000000   2.7928460   2.7928460
 AtZNuc=   1.0000000   8.0000000   1.0000000   1.0000000   8.0000000   1.0000000   1.0000000   8.0000000   1.0000000   1.0000000
 Background charge distribution read from input stream:
 Point Charges:
 XYZ=   -1.0730    5.3404   -2.8824 Q=   -0.8200 A=    0.0000 R=    0.0000 C=    0.0000
 XYZ=   -1.0867    4.5653   -2.2506 Q=    0.4100 A=    0.0000 R=    0.0000 C=    0.0000
 XYZ=   -1.1311    6.1938   -2.3643 Q=    0.4100 A=    0.0000 R=    0.0000 C=    0.0000
 XYZ=   -4.3900    3.1151    1.2658 Q=   -0.8200 A=    0.0000 R=    0.0000 C=    0.0000
 XYZ=   -4.5706    3.8304    0.5908 Q=    0.4100 A=    0.0000 R=    0.0000 C=    0.0000
 XYZ=   -4.5899    3.4631    2.1818 Q=    0.4100 A=    0.0000 R=    0.0000 C=    0.0000
 XYZ=   -5.7357    1.2368   -1.7076 Q=   -0.8200 A=    0.0000 R=    0.0000 C=    0.0000
 XYZ=   -6.0035    0.2778   -1.6148 Q=    0.4100 A=    0.0000 R=    0.0000 C=    0.0000
 XYZ=   -6.0154    1.5756   -2.6059 Q=    0.4100 A=    0.0000 R=    0.0000 C=    0.0000
 XYZ=   -6.2264    1.6986    0.6380 Q=   -0.8200 A=    0.0000 R=    0.0000 C=    0.0000
 XYZ=   -5.4302    2.2337    0.9204 Q=    0.4100 A=    0.0000 R=    0.0000 C=    0.0000
 XYZ=   -6.1020    1.3880   -0.3044 Q=    0.4100 A=    0.0000 R=    0.0000 C=    0.0000
 XYZ=    4.5196   -1.6072   -4.6179 Q=   -0.8200 A=    0.0000 R=    0.0000 C=    0.0000
 XYZ=    4.0904   -1.1636   -5.4047 Q=    0.4100 A=    0.0000 R=    0.0000 C=    0.0000
 XYZ=    5.2648   -1.0337   -4.2776 Q=    0.4100 A=    0.0000 R=    0.0000 C=    0.0000
 XYZ=   -5.3934   -2.6112    1.6533 Q=   -0.8200 A=    0.0000 R=    0.0000 C=    0.0000
 XYZ=   -4.5982   -2.0253    1.8091 Q=    0.4100 A=    0.0000 R=    0.0000 C=    0.0000
 XYZ=   -5.1325   -3.5681    1.7809 Q=    0.4100 A=    0.0000 R=    0.0000 C=    0.0000
 XYZ=   -4.1680    3.9076   -4.3757 Q=   -0.8200 A=    0.0000 R=    0.0000 C=    0.0000
 XYZ=   -4.1185    3.3258   -3.5638 Q=    0.4100 A=    0.0000 R=    0.0000 C=    0.0000
 XYZ=   -4.8245    3.5208   -5.0234 Q=    0.4100 A=    0.0000 R=    0.0000 C=    0.0000
 XYZ=    5.2519   -2.4827    2.6107 Q=   -0.8200 A=    0.0000 R=    0.0000 C=    0.0000
 XYZ=    5.5448   -1.6775    3.1262 Q=    0.4100 A=    0.0000 R=    0.0000 C=    0.0000
 XYZ=    5.8792   -2.6359    1.8471 Q=    0.4100 A=    0.0000 R=    0.0000 C=    0.0000
 XYZ=   -2.0530    2.3625   -5.1717 Q=   -0.8200 A=    0.0000 R=    0.0000 C=    0.0000
 XYZ=   -2.6954    2.9569   -4.6880 Q=    0.4100 A=    0.0000 R=    0.0000 C=    0.0000
 XYZ=   -1.4104    2.9222   -5.6950 Q=    0.4100 A=    0.0000 R=    0.0000 C=    0.0000
 XYZ=   -5.4574    0.2064    4.0403 Q=   -0.8200 A=    0.0000 R=    0.0000 C=    0.0000
 XYZ=   -4.8507   -0.2104    3.3635 Q=    0.4100 A=    0.0000 R=    0.0000 C=    0.0000
 XYZ=   -5.7459   -0.4866    4.7010 Q=    0.4100 A=    0.0000 R=    0.0000 C=    0.0000
 XYZ=    3.4248   -0.6498   -6.5808 Q=   -0.8200 A=    0.0000 R=    0.0000 C=    0.0000
 XYZ=    3.5607   -0.0746   -7.3875 Q=    0.4100 A=    0.0000 R=    0.0000 C=    0.0000
 XYZ=    2.6482   -0.3057   -6.0531 Q=    0.4100 A=    0.0000 R=    0.0000 C=    0.0000
 XYZ=   -4.6853    4.5847   -0.7072 Q=   -0.8200 A=    0.0000 R=    0.0000 C=    0.0000
 XYZ=   -4.5627    5.5603   -0.5247 Q=    0.4100 A=    0.0000 R=    0.0000 C=    0.0000
 XYZ=   -5.4677    4.4553   -1.3163 Q=    0.4100 A=    0.0000 R=    0.0000 C=    0.0000
 XYZ=    0.2000   -3.1774    5.7871 Q=   -0.8200 A=    0.0000 R=    0.0000 C=    0.0000
 XYZ=    0.6804   -2.4594    5.2834 Q=    0.4100 A=    0.0000 R=    0.0000 C=    0.0000
 XYZ=   -0.5714   -3.5073    5.2428 Q=    0.4100 A=    0.0000 R=    0.0000 C=    0.0000
 XYZ=   -3.4349    0.5972   -5.6890 Q=   -0.8200 A=    0.0000 R=    0.0000 C=    0.0000
 XYZ=   -3.0888   -0.3402   -5.7269 Q=    0.4100 A=    0.0000 R=    0.0000 C=    0.0000
 XYZ=   -2.6776    1.2250   -5.5087 Q=    0.4100 A=    0.0000 R=    0.0000 C=    0.0000
 XYZ=    5.6443   -3.5750   -4.5489 Q=   -0.8200 A=    0.0000 R=    0.0000 C=    0.0000
 XYZ=    6.5123   -3.1076   -4.3812 Q=    0.4100 A=    0.0000 R=    0.0000 C=    0.0000
 XYZ=    4.8990   -2.9083   -4.5374 Q=    0.4100 A=    0.0000 R=    0.0000 C=    0.0000
 XYZ=    3.2237   -6.8108   -0.5885 Q=   -0.8200 A=    0.0000 R=    0.0000 C=    0.0000
 XYZ=    3.1569   -6.0110    0.0081 Q=    0.4100 A=    0.0000 R=    0.0000 C=    0.0000
 XYZ=    4.1369   -6.8485   -0.9943 Q=    0.4100 A=    0.0000 R=    0.0000 C=    0.0000
 XYZ=    6.3948    1.3727   -2.2419 Q=   -0.8200 A=    0.0000 R=    0.0000 C=    0.0000
 XYZ=    6.0989    2.2321   -2.6590 Q=    0.4100 A=    0.0000 R=    0.0000 C=    0.0000
 XYZ=    6.3365    0.6372   -2.9169 Q=    0.4100 A=    0.0000 R=    0.0000 C=    0.0000
 XYZ=    3.7115   -3.8951    5.5289 Q=   -0.8200 A=    0.0000 R=    0.0000 C=    0.0000
 XYZ=    3.2247   -3.5458    4.7283 Q=    0.4100 A=    0.0000 R=    0.0000 C=    0.0000
 XYZ=    3.7485   -3.1852    6.2323 Q=    0.4100 A=    0.0000 R=    0.0000 C=    0.0000
 XYZ=   -5.4465   -2.8502   -0.7934 Q=   -0.8200 A=    0.0000 R=    0.0000 C=    0.0000
 XYZ=   -5.1354   -2.5215    0.0983 Q=    0.4100 A=    0.0000 R=    0.0000 C=    0.0000
 XYZ=   -5.7178   -3.8098   -0.7188 Q=    0.4100 A=    0.0000 R=    0.0000 C=    0.0000
 XYZ=    5.5758   -5.4762   -0.1281 Q=   -0.8200 A=    0.0000 R=    0.0000 C=    0.0000
 XYZ=    4.7646   -5.4528    0.4562 Q=    0.4100 A=    0.0000 R=    0.0000 C=    0.0000
 XYZ=    5.3410   -5.8895   -1.0079 Q=    0.4100 A=    0.0000 R=    0.0000 C=    0.0000
 XYZ=    7.6815   -0.4741    0.9012 Q=   -0.8200 A=    0.0000 R=    0.0000 C=    0.0000
 XYZ=    6.8774    0.1073    0.7771 Q=    0.4100 A=    0.0000 R=    0.0000 C=    0.0000
 XYZ=    7.4332   -1.4274    0.7290 Q=    0.4100 A=    0.0000 R=    0.0000 C=    0.0000
 XYZ=    6.4446   -0.5322   -3.6811 Q=   -0.8200 A=    0.0000 R=    0.0000 C=    0.0000
 XYZ=    7.0466   -0.3710   -4.4632 Q=    0.4100 A=    0.0000 R=    0.0000 C=    0.0000
 XYZ=    6.8167   -1.2725   -3.1212 Q=    0.4100 A=    0.0000 R=    0.0000 C=    0.0000
 XYZ=    1.2247    4.9186   -3.5047 Q=   -0.8200 A=    0.0000 R=    0.0000 C=    0.0000
 XYZ=    0.3212    5.2742   -3.2654 Q=    0.4100 A=    0.0000 R=    0.0000 C=    0.0000
 XYZ=    1.2363    4.6612   -4.4710 Q=    0.4100 A=    0.0000 R=    0.0000 C=    0.0000
 XYZ=    6.8864   -2.8743    0.9691 Q=   -0.8200 A=    0.0000 R=    0.0000 C=    0.0000
 XYZ=    6.9737   -3.1190    0.0034 Q=    0.4100 A=    0.0000 R=    0.0000 C=    0.0000
 XYZ=    7.3178   -3.5795    1.5319 Q=    0.4100 A=    0.0000 R=    0.0000 C=    0.0000
 XYZ=   -1.1150    6.6906    0.7459 Q=   -0.8200 A=    0.0000 R=    0.0000 C=    0.0000
 XYZ=   -1.3718    7.4789    1.3051 Q=    0.4100 A=    0.0000 R=    0.0000 C=    0.0000
 XYZ=   -1.2167    5.8534    1.2833 Q=    0.4100 A=    0.0000 R=    0.0000 C=    0.0000
 XYZ=    0.3237   -5.6295    2.9297 Q=   -0.8200 A=    0.0000 R=    0.0000 C=    0.0000
 XYZ=    0.1505   -6.3502    2.2584 Q=    0.4100 A=    0.0000 R=    0.0000 C=    0.0000
 XYZ=    0.9990   -5.9486    3.5946 Q=    0.4100 A=    0.0000 R=    0.0000 C=    0.0000
 XYZ=    5.7599   -0.6385    4.1661 Q=   -0.8200 A=    0.0000 R=    0.0000 C=    0.0000
 XYZ=    6.0018   -1.1703    4.9778 Q=    0.4100 A=    0.0000 R=    0.0000 C=    0.0000
 XYZ=    5.1264    0.0916    4.4227 Q=    0.4100 A=    0.0000 R=    0.0000 C=    0.0000
 XYZ=    3.7126    4.7788    0.9778 Q=   -0.8200 A=    0.0000 R=    0.0000 C=    0.0000
 XYZ=    3.4071    4.0939    0.3162 Q=    0.4100 A=    0.0000 R=    0.0000 C=    0.0000
 XYZ=    3.5881    5.6931    0.5925 Q=    0.4100 A=    0.0000 R=    0.0000 C=    0.0000
 XYZ=    2.8073   -0.3755    6.0854 Q=   -0.8200 A=    0.0000 R=    0.0000 C=    0.0000
 XYZ=    3.3496   -0.9174    6.7275 Q=    0.4100 A=    0.0000 R=    0.0000 C=    0.0000
 XYZ=    3.4065    0.2565    5.5938 Q=    0.4100 A=    0.0000 R=    0.0000 C=    0.0000
 XYZ=   -6.4328   -0.9393   -1.9062 Q=   -0.8200 A=    0.0000 R=    0.0000 C=    0.0000
 XYZ=   -6.5140   -0.9108   -2.9025 Q=    0.4100 A=    0.0000 R=    0.0000 C=    0.0000
 XYZ=   -6.0042   -1.7999   -1.6312 Q=    0.4100 A=    0.0000 R=    0.0000 C=    0.0000
 XYZ=    4.4218    1.0870    4.9036 Q=   -0.8200 A=    0.0000 R=    0.0000 C=    0.0000
 XYZ=    4.9912    0.9721    5.7176 Q=    0.4100 A=    0.0000 R=    0.0000 C=    0.0000
 XYZ=    4.3243    2.0612    4.6999 Q=    0.4100 A=    0.0000 R=    0.0000 C=    0.0000
 XYZ=    7.2236   -3.9186   -1.2930 Q=   -0.8200 A=    0.0000 R=    0.0000 C=    0.0000
 XYZ=    6.5306   -4.5835   -1.0142 Q=    0.4100 A=    0.0000 R=    0.0000 C=    0.0000
 XYZ=    8.1153   -4.3683   -1.3445 Q=    0.4100 A=    0.0000 R=    0.0000 C=    0.0000
 XYZ=    1.6970    5.2922    2.8410 Q=   -0.8200 A=    0.0000 R=    0.0000 C=    0.0000
 XYZ=    1.6143    6.1972    2.4237 Q=    0.4100 A=    0.0000 R=    0.0000 C=    0.0000
 XYZ=    2.3796    4.7569    2.3433 Q=    0.4100 A=    0.0000 R=    0.0000 C=    0.0000
 XYZ=   -2.3264    5.4686   -4.8925 Q=   -0.8200 A=    0.0000 R=    0.0000 C=    0.0000
 XYZ=   -1.7246    5.4610   -4.0939 Q=    0.4100 A=    0.0000 R=    0.0000 C=    0.0000
 XYZ=   -3.1672    4.9703   -4.6810 Q=    0.4100 A=    0.0000 R=    0.0000 C=    0.0000
 XYZ=    5.8279   -4.2529    4.0457 Q=   -0.8200 A=    0.0000 R=    0.0000 C=    0.0000
 XYZ=    5.6989   -3.5667    3.3298 Q=    0.4100 A=    0.0000 R=    0.0000 C=    0.0000
 XYZ=    5.2342   -4.0405    4.8218 Q=    0.4100 A=    0.0000 R=    0.0000 C=    0.0000
 XYZ=   -0.7792    4.2460   -6.2251 Q=   -0.8200 A=    0.0000 R=    0.0000 C=    0.0000
 XYZ=    0.1291    4.2877   -5.8088 Q=    0.4100 A=    0.0000 R=    0.0000 C=    0.0000
 XYZ=   -1.3827    4.9039   -5.7747 Q=    0.4100 A=    0.0000 R=    0.0000 C=    0.0000
 XYZ=   -4.6377   -2.8202    5.7009 Q=   -0.8200 A=    0.0000 R=    0.0000 C=    0.0000
 XYZ=   -3.9565   -2.3344    5.1534 Q=    0.4100 A=    0.0000 R=    0.0000 C=    0.0000
 XYZ=   -4.1822   -3.5081    6.2661 Q=    0.4100 A=    0.0000 R=    0.0000 C=    0.0000
 XYZ=   -5.1838    2.1291   -5.5712 Q=   -0.8200 A=    0.0000 R=    0.0000 C=    0.0000
 XYZ=   -5.5036    2.5062   -6.4405 Q=    0.4100 A=    0.0000 R=    0.0000 C=    0.0000
 XYZ=   -4.3690    1.5714   -5.7295 Q=    0.4100 A=    0.0000 R=    0.0000 C=    0.0000
 XYZ=    7.9448   -2.6802   -3.2218 Q=   -0.8200 A=    0.0000 R=    0.0000 C=    0.0000
 XYZ=    8.7521   -2.3049   -2.7663 Q=    0.4100 A=    0.0000 R=    0.0000 C=    0.0000
 XYZ=    7.3847   -3.1724   -2.5554 Q=    0.4100 A=    0.0000 R=    0.0000 C=    0.0000
 XYZ=    6.9941    2.5866    1.7159 Q=   -0.8200 A=    0.0000 R=    0.0000 C=    0.0000
 XYZ=    6.2351    3.1216    2.0871 Q=    0.4100 A=    0.0000 R=    0.0000 C=    0.0000
 XYZ=    6.6628    2.0140    0.9659 Q=    0.4100 A=    0.0000 R=    0.0000 C=    0.0000
 XYZ=   -7.3367    0.7641    2.6093 Q=   -0.8200 A=    0.0000 R=    0.0000 C=    0.0000
 XYZ=   -6.8710    1.1229    1.8004 Q=    0.4100 A=    0.0000 R=    0.0000 C=    0.0000
 XYZ=   -6.6774    0.6573    3.3536 Q=    0.4100 A=    0.0000 R=    0.0000 C=    0.0000
 XYZ=   -5.6173    2.3329    4.8187 Q=   -0.8200 A=    0.0000 R=    0.0000 C=    0.0000
 XYZ=   -5.2645    2.3487    5.7543 Q=    0.4100 A=    0.0000 R=    0.0000 C=    0.0000
 XYZ=   -5.5996    1.3951    4.4717 Q=    0.4100 A=    0.0000 R=    0.0000 C=    0.0000
 XYZ=   -5.0378    4.0728    3.2386 Q=   -0.8200 A=    0.0000 R=    0.0000 C=    0.0000
 XYZ=   -5.9147    4.4448    2.9342 Q=    0.4100 A=    0.0000 R=    0.0000 C=    0.0000
 XYZ=   -5.1986    3.3172    3.8736 Q=    0.4100 A=    0.0000 R=    0.0000 C=    0.0000
 XYZ=    1.6876    4.2888   -5.8572 Q=   -0.8200 A=    0.0000 R=    0.0000 C=    0.0000
 XYZ=    2.5982    4.7018   -5.8745 Q=    0.4100 A=    0.0000 R=    0.0000 C=    0.0000
 XYZ=    1.5154    3.8251   -6.7263 Q=    0.4100 A=    0.0000 R=    0.0000 C=    0.0000
 XYZ=   -6.2647    4.1543   -2.4169 Q=   -0.8200 A=    0.0000 R=    0.0000 C=    0.0000
 XYZ=   -6.0986    4.9570   -2.9897 Q=    0.4100 A=    0.0000 R=    0.0000 C=    0.0000
 XYZ=   -6.4829    3.3699   -2.9975 Q=    0.4100 A=    0.0000 R=    0.0000 C=    0.0000
 XYZ=    2.1650    4.8760    5.1604 Q=   -0.8200 A=    0.0000 R=    0.0000 C=    0.0000
 XYZ=    1.8268    4.8038    4.2220 Q=    0.4100 A=    0.0000 R=    0.0000 C=    0.0000
 XYZ=    1.7341    4.1720    5.7250 Q=    0.4100 A=    0.0000 R=    0.0000 C=    0.0000
 XYZ=   -0.9354    7.3535   -1.5288 Q=   -0.8200 A=    0.0000 R=    0.0000 C=    0.0000
 XYZ=   -0.0998    7.8992   -1.5930 Q=    0.4100 A=    0.0000 R=    0.0000 C=    0.0000
 XYZ=   -1.0431    7.0179   -0.5929 Q=    0.4100 A=    0.0000 R=    0.0000 C=    0.0000
 XYZ=    8.4707    0.2504   -1.2043 Q=   -0.8200 A=    0.0000 R=    0.0000 C=    0.0000
 XYZ=    7.8007    0.8321   -1.6654 Q=    0.4100 A=    0.0000 R=    0.0000 C=    0.0000
 XYZ=    8.1614    0.0597   -0.2727 Q=    0.4100 A=    0.0000 R=    0.0000 C=    0.0000
 XYZ=    2.9224    6.1900   -2.4556 Q=   -0.8200 A=    0.0000 R=    0.0000 C=    0.0000
 XYZ=    3.7244    5.6003   -2.3603 Q=    0.4100 A=    0.0000 R=    0.0000 C=    0.0000
 XYZ=    2.2288    5.7231   -3.0042 Q=    0.4100 A=    0.0000 R=    0.0000 C=    0.0000
 XYZ=    5.6565   -5.7689   -4.1528 Q=   -0.8200 A=    0.0000 R=    0.0000 C=    0.0000
 XYZ=    5.7336   -4.7839   -4.3074 Q=    0.4100 A=    0.0000 R=    0.0000 C=    0.0000
 XYZ=    5.0148   -6.1605   -4.8122 Q=    0.4100 A=    0.0000 R=    0.0000 C=    0.0000
 XYZ=   -1.6140   -6.1988    4.0986 Q=   -0.8200 A=    0.0000 R=    0.0000 C=    0.0000
 XYZ=   -0.8136   -5.9227    3.5664 Q=    0.4100 A=    0.0000 R=    0.0000 C=    0.0000
 XYZ=   -1.3650   -6.9504    4.7094 Q=    0.4100 A=    0.0000 R=    0.0000 C=    0.0000
 XYZ=   -1.7064   -4.2089    5.1060 Q=   -0.8200 A=    0.0000 R=    0.0000 C=    0.0000
 XYZ=   -2.0643   -4.2235    6.0396 Q=    0.4100 A=    0.0000 R=    0.0000 C=    0.0000
 XYZ=   -1.8332   -5.1078    4.6864 Q=    0.4100 A=    0.0000 R=    0.0000 C=    0.0000
 XYZ=    1.1361   -7.7286   -0.2013 Q=   -0.8200 A=    0.0000 R=    0.0000 C=    0.0000
 XYZ=    2.0544   -7.3788   -0.3868 Q=    0.4100 A=    0.0000 R=    0.0000 C=    0.0000
 XYZ=    0.7240   -8.0514   -1.0533 Q=    0.4100 A=    0.0000 R=    0.0000 C=    0.0000
 XYZ=    1.6889    1.1335    7.4158 Q=   -0.8200 A=    0.0000 R=    0.0000 C=    0.0000
 XYZ=    2.0727    0.4465    6.7987 Q=    0.4100 A=    0.0000 R=    0.0000 C=    0.0000
 XYZ=    0.7119    0.9604    7.5409 Q=    0.4100 A=    0.0000 R=    0.0000 C=    0.0000
 XYZ=   -6.6812    2.2400   -3.9217 Q=   -0.8200 A=    0.0000 R=    0.0000 C=    0.0000
 XYZ=   -6.1171    2.0606   -4.7277 Q=    0.4100 A=    0.0000 R=    0.0000 C=    0.0000
 XYZ=   -7.5788    1.8158   -4.0419 Q=    0.4100 A=    0.0000 R=    0.0000 C=    0.0000
 XYZ=    5.2347   -6.8505   -1.9094 Q=   -0.8200 A=    0.0000 R=    0.0000 C=    0.0000
 XYZ=    5.8497   -7.6339   -1.9996 Q=    0.4100 A=    0.0000 R=    0.0000 C=    0.0000
 XYZ=    5.2041   -6.3495   -2.7743 Q=    0.4100 A=    0.0000 R=    0.0000 C=    0.0000
 XYZ=    1.8109   -5.0298    6.0672 Q=   -0.8200 A=    0.0000 R=    0.0000 C=    0.0000
 XYZ=    2.6964   -4.6410    5.8130 Q=    0.4100 A=    0.0000 R=    0.0000 C=    0.0000
 XYZ=    1.1163   -4.3104    6.0591 Q=    0.4100 A=    0.0000 R=    0.0000 C=    0.0000
 XYZ=   -7.4523   -1.6102    2.1800 Q=   -0.8200 A=    0.0000 R=    0.0000 C=    0.0000
 XYZ=   -6.5659   -2.0573    2.0598 Q=    0.4100 A=    0.0000 R=    0.0000 C=    0.0000
 XYZ=   -7.3219   -0.6200    2.2304 Q=    0.4100 A=    0.0000 R=    0.0000 C=    0.0000
 XYZ=    4.1780   -6.0518    3.1771 Q=   -0.8200 A=    0.0000 R=    0.0000 C=    0.0000
 XYZ=    3.3892   -6.2422    3.7616 Q=    0.4100 A=    0.0000 R=    0.0000 C=    0.0000
 XYZ=    4.8679   -5.5520    3.7008 Q=    0.4100 A=    0.0000 R=    0.0000 C=    0.0000
 XYZ=   -7.9642    3.4543    1.1655 Q=   -0.8200 A=    0.0000 R=    0.0000 C=    0.0000
 XYZ=   -7.4254    2.6120    1.1496 Q=    0.4100 A=    0.0000 R=    0.0000 C=    0.0000
 XYZ=   -8.9062    3.2426    1.4258 Q=    0.4100 A=    0.0000 R=    0.0000 C=    0.0000
 XYZ=    4.7091    4.6586   -2.0370 Q=   -0.8200 A=    0.0000 R=    0.0000 C=    0.0000
 XYZ=    5.1474    5.4242   -1.5661 Q=    0.4100 A=    0.0000 R=    0.0000 C=    0.0000
 XYZ=    5.3751    4.2072   -2.6308 Q=    0.4100 A=    0.0000 R=    0.0000 C=    0.0000
 XYZ=   -4.3405    6.7887   -0.4970 Q=   -0.8200 A=    0.0000 R=    0.0000 C=    0.0000
 XYZ=   -3.7066    7.1612   -1.1748 Q=    0.4100 A=    0.0000 R=    0.0000 C=    0.0000
 XYZ=   -5.0051    7.4908   -0.2410 Q=    0.4100 A=    0.0000 R=    0.0000 C=    0.0000
 XYZ=   -4.1188    5.4466    4.9257 Q=   -0.8200 A=    0.0000 R=    0.0000 C=    0.0000
 XYZ=   -4.9473    5.8451    5.3192 Q=    0.4100 A=    0.0000 R=    0.0000 C=    0.0000
 XYZ=   -4.3621    4.8873    4.1332 Q=    0.4100 A=    0.0000 R=    0.0000 C=    0.0000
 XYZ=    7.5558    0.8679    3.6008 Q=   -0.8200 A=    0.0000 R=    0.0000 C=    0.0000
 XYZ=    7.2551    1.1765    2.6984 Q=    0.4100 A=    0.0000 R=    0.0000 C=    0.0000
 XYZ=    6.9121    0.1880    3.9521 Q=    0.4100 A=    0.0000 R=    0.0000 C=    0.0000
 XYZ=   -8.7734   -0.5922   -1.2443 Q=   -0.8200 A=    0.0000 R=    0.0000 C=    0.0000
 XYZ=   -8.9824    0.3855   -1.2655 Q=    0.4100 A=    0.0000 R=    0.0000 C=    0.0000
 XYZ=   -7.7921   -0.7262   -1.3833 Q=    0.4100 A=    0.0000 R=    0.0000 C=    0.0000
 XYZ=    1.0809    3.3724    6.8445 Q=   -0.8200 A=    0.0000 R=    0.0000 C=    0.0000
 XYZ=    1.2914    3.8664    7.6881 Q=    0.4100 A=    0.0000 R=    0.0000 C=    0.0000
 XYZ=    1.2764    2.3997    6.9702 Q=    0.4100 A=    0.0000 R=    0.0000 C=    0.0000
 XYZ=    1.1883    7.1892    1.1457 Q=   -0.8200 A=    0.0000 R=    0.0000 C=    0.0000
 XYZ=    1.1647    7.7796    1.9525 Q=    0.4100 A=    0.0000 R=    0.0000 C=    0.0000
 XYZ=    0.2792    7.1557    0.7304 Q=    0.4100 A=    0.0000 R=    0.0000 C=    0.0000
 XYZ=    6.1229    3.4513   -3.3812 Q=   -0.8200 A=    0.0000 R=    0.0000 C=    0.0000
 XYZ=    7.0408    3.4557   -2.9843 Q=    0.4100 A=    0.0000 R=    0.0000 C=    0.0000
 XYZ=    6.1885    3.5548   -4.3737 Q=    0.4100 A=    0.0000 R=    0.0000 C=    0.0000
 XYZ=   -1.2933    3.3750    7.3641 Q=   -0.8200 A=    0.0000 R=    0.0000 C=    0.0000
 XYZ=   -0.3619    3.4440    7.0066 Q=    0.4100 A=    0.0000 R=    0.0000 C=    0.0000
 XYZ=   -1.5660    2.4135    7.4002 Q=    0.4100 A=    0.0000 R=    0.0000 C=    0.0000
 XYZ=    1.9053   -6.5040    4.4155 Q=   -0.8200 A=    0.0000 R=    0.0000 C=    0.0000
 XYZ=    1.6388   -7.4232    4.7055 Q=    0.4100 A=    0.0000 R=    0.0000 C=    0.0000
 XYZ=    1.8239   -5.8742    5.1881 Q=    0.4100 A=    0.0000 R=    0.0000 C=    0.0000
 XYZ=   -0.1786   -7.3629    1.6486 Q=   -0.8200 A=    0.0000 R=    0.0000 C=    0.0000
 XYZ=    0.4899   -7.5158    0.9207 Q=    0.4100 A=    0.0000 R=    0.0000 C=    0.0000
 XYZ=   -1.0662   -7.1410    1.2448 Q=    0.4100 A=    0.0000 R=    0.0000 C=    0.0000
 XYZ=    5.4784    4.3767    2.7325 Q=   -0.8200 A=    0.0000 R=    0.0000 C=    0.0000
 XYZ=    5.0196    3.9478    3.5106 Q=    0.4100 A=    0.0000 R=    0.0000 C=    0.0000
 XYZ=    4.7949    4.6822    2.0696 Q=    0.4100 A=    0.0000 R=    0.0000 C=    0.0000
 XYZ=   -8.4749    3.6549   -1.1565 Q=   -0.8200 A=    0.0000 R=    0.0000 C=    0.0000
 XYZ=   -7.5487    3.7562   -1.5198 Q=    0.4100 A=    0.0000 R=    0.0000 C=    0.0000
 XYZ=   -8.4496    3.7130   -0.1584 Q=    0.4100 A=    0.0000 R=    0.0000 C=    0.0000
 XYZ=   -1.2380   -2.7342    7.7153 Q=   -0.8200 A=    0.0000 R=    0.0000 C=    0.0000
 XYZ=   -0.5654   -2.8691    6.9877 Q=    0.4100 A=    0.0000 R=    0.0000 C=    0.0000
 XYZ=   -0.9043   -3.1535    8.5596 Q=    0.4100 A=    0.0000 R=    0.0000 C=    0.0000
 XYZ=    4.2898    3.6981    4.7505 Q=   -0.8200 A=    0.0000 R=    0.0000 C=    0.0000
 XYZ=    5.0561    4.0532    5.2861 Q=    0.4100 A=    0.0000 R=    0.0000 C=    0.0000
 XYZ=    3.4713    4.2406    4.9396 Q=    0.4100 A=    0.0000 R=    0.0000 C=    0.0000
 XYZ=   -4.9518   -4.8601    2.3117 Q=   -0.8200 A=    0.0000 R=    0.0000 C=    0.0000
 XYZ=   -5.4327   -4.5440    3.1296 Q=    0.4100 A=    0.0000 R=    0.0000 C=    0.0000
 XYZ=   -4.3912   -5.6557    2.5413 Q=    0.4100 A=    0.0000 R=    0.0000 C=    0.0000
 XYZ=    6.9629   -6.8291    1.2933 Q=   -0.8200 A=    0.0000 R=    0.0000 C=    0.0000
 XYZ=    6.5043   -6.2109    0.6549 Q=    0.4100 A=    0.0000 R=    0.0000 C=    0.0000
 XYZ=    6.4372   -7.6760    1.3730 Q=    0.4100 A=    0.0000 R=    0.0000 C=    0.0000
 XYZ=   -4.0569    0.8480   -8.0186 Q=   -0.8200 A=    0.0000 R=    0.0000 C=    0.0000
 XYZ=   -4.3694    0.0064   -8.4591 Q=    0.4100 A=    0.0000 R=    0.0000 C=    0.0000
 XYZ=   -4.1550    0.7614   -7.0271 Q=    0.4100 A=    0.0000 R=    0.0000 C=    0.0000
 XYZ=    9.5509   -1.7835   -1.9211 Q=   -0.8200 A=    0.0000 R=    0.0000 C=    0.0000
 XYZ=    8.9152   -1.0479   -1.6869 Q=    0.4100 A=    0.0000 R=    0.0000 C=    0.0000
 XYZ=   10.1143   -2.0033   -1.1245 Q=    0.4100 A=    0.0000 R=    0.0000 C=    0.0000
 XYZ=    5.1239   -2.2036   -7.8084 Q=   -0.8200 A=    0.0000 R=    0.0000 C=    0.0000
 XYZ=    5.1969   -3.1479   -7.4875 Q=    0.4100 A=    0.0000 R=    0.0000 C=    0.0000
 XYZ=    4.4722   -1.7064   -7.2355 Q=    0.4100 A=    0.0000 R=    0.0000 C=    0.0000
 XYZ=    5.5219   -4.3906   -6.9016 Q=   -0.8200 A=    0.0000 R=    0.0000 C=    0.0000
 XYZ=    5.7126   -3.9902   -6.0053 Q=    0.4100 A=    0.0000 R=    0.0000 C=    0.0000
 XYZ=    6.3803   -4.5216   -7.3976 Q=    0.4100 A=    0.0000 R=    0.0000 C=    0.0000
 XYZ=   -3.0814    8.0495   -2.2438 Q=   -0.8200 A=    0.0000 R=    0.0000 C=    0.0000
 XYZ=   -3.3615    8.8745   -1.7530 Q=    0.4100 A=    0.0000 R=    0.0000 C=    0.0000
 XYZ=   -2.1533    7.7974   -1.9695 Q=    0.4100 A=    0.0000 R=    0.0000 C=    0.0000
 XYZ=    2.7876    3.2867   -7.9124 Q=   -0.8200 A=    0.0000 R=    0.0000 C=    0.0000
 XYZ=    3.2547    3.8196   -7.2067 Q=    0.4100 A=    0.0000 R=    0.0000 C=    0.0000
 XYZ=    3.1572    2.3577   -7.9278 Q=    0.4100 A=    0.0000 R=    0.0000 C=    0.0000
 XYZ=   -2.0782   -0.6884    8.3296 Q=   -0.8200 A=    0.0000 R=    0.0000 C=    0.0000
 XYZ=   -1.6868   -1.4747    7.8516 Q=    0.4100 A=    0.0000 R=    0.0000 C=    0.0000
 XYZ=   -2.8441   -0.9908    8.8971 Q=    0.4100 A=    0.0000 R=    0.0000 C=    0.0000
 XYZ=   -3.0416    5.0623    6.9179 Q=   -0.8200 A=    0.0000 R=    0.0000 C=    0.0000
 XYZ=   -3.4649    5.2374    6.0289 Q=    0.4100 A=    0.0000 R=    0.0000 C=    0.0000
 XYZ=   -2.4235    4.2797    6.8443 Q=    0.4100 A=    0.0000 R=    0.0000 C=    0.0000
 XYZ=    4.2488   -1.8619    7.2423 Q=   -0.8200 A=    0.0000 R=    0.0000 C=    0.0000
 XYZ=    4.4251   -1.8895    8.2263 Q=    0.4100 A=    0.0000 R=    0.0000 C=    0.0000
 XYZ=    5.1180   -1.8279    6.7489 Q=    0.4100 A=    0.0000 R=    0.0000 C=    0.0000
 XYZ=   -1.0755    3.5393   -8.5498 Q=   -0.8200 A=    0.0000 R=    0.0000 C=    0.0000
 XYZ=   -0.9817    4.0360   -7.6869 Q=    0.4100 A=    0.0000 R=    0.0000 C=    0.0000
 XYZ=   -1.6626    4.0584   -9.1709 Q=    0.4100 A=    0.0000 R=    0.0000 C=    0.0000
 XYZ=    3.3541    6.7787   -0.1540 Q=   -0.8200 A=    0.0000 R=    0.0000 C=    0.0000
 XYZ=    2.4618    6.9966    0.2414 Q=    0.4100 A=    0.0000 R=    0.0000 C=    0.0000
 XYZ=    3.2325    6.4528   -1.0916 Q=    0.4100 A=    0.0000 R=    0.0000 C=    0.0000
 XYZ=    7.8274   -4.7948    2.2104 Q=   -0.8200 A=    0.0000 R=    0.0000 C=    0.0000
 XYZ=    7.1929   -4.6138    2.9618 Q=    0.4100 A=    0.0000 R=    0.0000 C=    0.0000
 XYZ=    7.5349   -5.6141    1.7172 Q=    0.4100 A=    0.0000 R=    0.0000 C=    0.0000
 XYZ=    3.5282    1.0097   -8.3335 Q=   -0.8200 A=    0.0000 R=    0.0000 C=    0.0000
 XYZ=    4.5091    1.2007   -8.2969 Q=    0.4100 A=    0.0000 R=    0.0000 C=    0.0000
 XYZ=    3.2590    0.8282   -9.2793 Q=    0.4100 A=    0.0000 R=    0.0000 C=    0.0000
 XYZ=   -6.6000   -1.4241    5.5267 Q=   -0.8200 A=    0.0000 R=    0.0000 C=    0.0000
 XYZ=   -7.2500   -1.9260    4.9561 Q=    0.4100 A=    0.0000 R=    0.0000 C=    0.0000
 XYZ=   -5.8425   -2.0267    5.7780 Q=    0.4100 A=    0.0000 R=    0.0000 C=    0.0000
 XYZ=   -5.7732   -5.4209    0.1118 Q=   -0.8200 A=    0.0000 R=    0.0000 C=    0.0000
 XYZ=   -5.2431   -6.1283   -0.3558 Q=    0.4100 A=    0.0000 R=    0.0000 C=    0.0000
 XYZ=   -5.3960   -5.2714    1.0259 Q=    0.4100 A=    0.0000 R=    0.0000 C=    0.0000
 XYZ=   -5.9940   -4.2571    4.4174 Q=   -0.8200 A=    0.0000 R=    0.0000 C=    0.0000
 XYZ=   -6.8199   -3.7054    4.3005 Q=    0.4100 A=    0.0000 R=    0.0000 C=    0.0000
 XYZ=   -5.3582   -3.7806    5.0246 Q=    0.4100 A=    0.0000 R=    0.0000 C=    0.0000
 XYZ=   -2.1147    1.3647   -9.0640 Q=   -0.8200 A=    0.0000 R=    0.0000 C=    0.0000
 XYZ=   -2.8720    1.1352   -8.4524 Q=    0.4100 A=    0.0000 R=    0.0000 C=    0.0000
 XYZ=   -1.5876    2.1193   -8.6731 Q=    0.4100 A=    0.0000 R=    0.0000 C=    0.0000
 XYZ=    1.3739    8.1534   -2.0827 Q=   -0.8200 A=    0.0000 R=    0.0000 C=    0.0000
 XYZ=    1.3524    8.4932   -3.0230 Q=    0.4100 A=    0.0000 R=    0.0000 C=    0.0000
 XYZ=    1.9004    7.3040   -2.0473 Q=    0.4100 A=    0.0000 R=    0.0000 C=    0.0000
 XYZ=   -0.4815    0.9407    8.4032 Q=   -0.8200 A=    0.0000 R=    0.0000 C=    0.0000
 XYZ=   -1.1560    0.2042    8.4548 Q=    0.4100 A=    0.0000 R=    0.0000 C=    0.0000
 XYZ=   -0.2333    1.2306    9.3275 Q=    0.4100 A=    0.0000 R=    0.0000 C=    0.0000
 XYZ=   -2.9847    7.3421    3.9967 Q=   -0.8200 A=    0.0000 R=    0.0000 C=    0.0000
 XYZ=   -3.4158    6.4900    4.2936 Q=    0.4100 A=    0.0000 R=    0.0000 C=    0.0000
 XYZ=   -3.5613    8.1161    4.2583 Q=    0.4100 A=    0.0000 R=    0.0000 C=    0.0000
 XYZ=   -2.2964   -7.3626    0.7239 Q=   -0.8200 A=    0.0000 R=    0.0000 C=    0.0000
 XYZ=   -2.4805   -8.3455    0.7254 Q=    0.4100 A=    0.0000 R=    0.0000 C=    0.0000
 XYZ=   -2.7637   -6.9372   -0.0512 Q=    0.4100 A=    0.0000 R=    0.0000 C=    0.0000
 XYZ=    6.3578   -1.8738    6.1096 Q=   -0.8200 A=    0.0000 R=    0.0000 C=    0.0000
 XYZ=    7.0201   -1.5796    6.7988 Q=    0.4100 A=    0.0000 R=    0.0000 C=    0.0000
 XYZ=    6.6679   -2.7282    5.6928 Q=    0.4100 A=    0.0000 R=    0.0000 C=    0.0000
 XYZ=    7.8969   -0.2983   -5.4811 Q=   -0.8200 A=    0.0000 R=    0.0000 C=    0.0000
 XYZ=    8.2437    0.6378   -5.5410 Q=    0.4100 A=    0.0000 R=    0.0000 C=    0.0000
 XYZ=    8.6621   -0.9301   -5.3575 Q=    0.4100 A=    0.0000 R=    0.0000 C=    0.0000
 XYZ=   -7.0579    5.1248    2.7585 Q=   -0.8200 A=    0.0000 R=    0.0000 C=    0.0000
 XYZ=   -7.5966    5.0941    3.6004 Q=    0.4100 A=    0.0000 R=    0.0000 C=    0.0000
 XYZ=   -7.4694    4.5191    2.0773 Q=    0.4100 A=    0.0000 R=    0.0000 C=    0.0000
 XYZ=   -3.2592   -3.9216    7.0372 Q=   -0.8200 A=    0.0000 R=    0.0000 C=    0.0000
 XYZ=   -2.6476   -3.2148    7.3929 Q=    0.4100 A=    0.0000 R=    0.0000 C=    0.0000
 XYZ=   -3.1862   -4.7419    7.6045 Q=    0.4100 A=    0.0000 R=    0.0000 C=    0.0000
 XYZ=   -1.4435    6.5581    5.7199 Q=   -0.8200 A=    0.0000 R=    0.0000 C=    0.0000
 XYZ=   -2.0277    6.7948    4.9434 Q=    0.4100 A=    0.0000 R=    0.0000 C=    0.0000
 XYZ=   -1.8445    5.7879    6.2160 Q=    0.4100 A=    0.0000 R=    0.0000 C=    0.0000
 XYZ=    9.5856    2.2535   -1.4180 Q=   -0.8200 A=    0.0000 R=    0.0000 C=    0.0000
 XYZ=    9.1808    1.3470   -1.2976 Q=    0.4100 A=    0.0000 R=    0.0000 C=    0.0000
 XYZ=    9.9700    2.5650   -0.5490 Q=    0.4100 A=    0.0000 R=    0.0000 C=    0.0000
 XYZ=    0.8193    7.0780    4.9024 Q=   -0.8200 A=    0.0000 R=    0.0000 C=    0.0000
 XYZ=    1.4792    6.3423    5.0553 Q=    0.4100 A=    0.0000 R=    0.0000 C=    0.0000
 XYZ=   -0.0800    6.7933    5.2345 Q=    0.4100 A=    0.0000 R=    0.0000 C=    0.0000
 XYZ=   -2.9938    7.9300   -4.8014 Q=   -0.8200 A=    0.0000 R=    0.0000 C=    0.0000
 XYZ=   -3.0364    8.0150   -3.8059 Q=    0.4100 A=    0.0000 R=    0.0000 C=    0.0000
 XYZ=   -2.9632    6.9625   -5.0522 Q=    0.4100 A=    0.0000 R=    0.0000 C=    0.0000
 XYZ=    7.9450   -6.4746   -3.2340 Q=   -0.8200 A=    0.0000 R=    0.0000 C=    0.0000
 XYZ=    7.0331   -6.2915   -3.6013 Q=    0.4100 A=    0.0000 R=    0.0000 C=    0.0000
 XYZ=    8.5984   -6.5511   -3.9872 Q=    0.4100 A=    0.0000 R=    0.0000 C=    0.0000
 XYZ=   10.2676   -0.6543    1.7710 Q=   -0.8200 A=    0.0000 R=    0.0000 C=    0.0000
 XYZ=   10.4463   -0.4417    2.7317 Q=    0.4100 A=    0.0000 R=    0.0000 C=    0.0000
 XYZ=    9.2804   -0.6759    1.6124 Q=    0.4100 A=    0.0000 R=    0.0000 C=    0.0000
 XYZ=   -3.4674   -6.7582    2.7783 Q=   -0.8200 A=    0.0000 R=    0.0000 C=    0.0000
 XYZ=   -2.7028   -6.7555    3.4229 Q=    0.4100 A=    0.0000 R=    0.0000 C=    0.0000
 XYZ=   -3.1312   -6.9821    1.8635 Q=    0.4100 A=    0.0000 R=    0.0000 C=    0.0000
 XYZ=    9.4735   -2.0769   -4.9903 Q=   -0.8200 A=    0.0000 R=    0.0000 C=    0.0000
 XYZ=   10.2736   -1.7831   -4.4674 Q=    0.4100 A=    0.0000 R=    0.0000 C=    0.0000
 XYZ=    8.8068   -2.4945   -4.3729 Q=    0.4100 A=    0.0000 R=    0.0000 C=    0.0000
 XYZ=    4.1658    4.8952   -6.5903 Q=   -0.8200 A=    0.0000 R=    0.0000 C=    0.0000
 XYZ=    5.0146    4.6520   -6.1209 Q=    0.4100 A=    0.0000 R=    0.0000 C=    0.0000
 XYZ=    4.3554    5.5918   -7.2822 Q=    0.4100 A=    0.0000 R=    0.0000 C=    0.0000
 XYZ=   -5.4405    2.1250    7.2057 Q=   -0.8200 A=    0.0000 R=    0.0000 C=    0.0000
 XYZ=   -5.5778    1.4997    7.9739 Q=    0.4100 A=    0.0000 R=    0.0000 C=    0.0000
 XYZ=   -5.1700    3.0235    7.5515 Q=    0.4100 A=    0.0000 R=    0.0000 C=    0.0000
 XYZ=   -7.1022    0.3271    6.8702 Q=   -0.8200 A=    0.0000 R=    0.0000 C=    0.0000
 XYZ=   -7.0072   -0.4814    6.2894 Q=    0.4100 A=    0.0000 R=    0.0000 C=    0.0000
 XYZ=   -6.3925    0.9914    6.6353 Q=    0.4100 A=    0.0000 R=    0.0000 C=    0.0000
 XYZ=    9.0709    3.4029    2.1361 Q=   -0.8200 A=    0.0000 R=    0.0000 C=    0.0000
 XYZ=    9.4137    2.9672    2.9684 Q=    0.4100 A=    0.0000 R=    0.0000 C=    0.0000
 XYZ=    8.2223    2.9567    1.8516 Q=    0.4100 A=    0.0000 R=    0.0000 C=    0.0000
 XYZ=   -9.3578    1.6079   -1.8974 Q=   -0.8200 A=    0.0000 R=    0.0000 C=    0.0000
 XYZ=  -10.3366    1.4907   -2.0657 Q=    0.4100 A=    0.0000 R=    0.0000 C=    0.0000
 XYZ=   -9.1809    2.5457   -1.5984 Q=    0.4100 A=    0.0000 R=    0.0000 C=    0.0000
 XYZ=   -9.4422   -1.3745    0.8544 Q=   -0.8200 A=    0.0000 R=    0.0000 C=    0.0000
 XYZ=   -9.0725   -1.1367   -0.0438 Q=    0.4100 A=    0.0000 R=    0.0000 C=    0.0000
 XYZ=   -8.6895   -1.5296    1.4942 Q=    0.4100 A=    0.0000 R=    0.0000 C=    0.0000
 XYZ=    1.0942    3.5759   -9.5364 Q=   -0.8200 A=    0.0000 R=    0.0000 C=    0.0000
 XYZ=    0.2100    3.5825   -9.0693 Q=    0.4100 A=    0.0000 R=    0.0000 C=    0.0000
 XYZ=    1.8283    3.5224   -8.8595 Q=    0.4100 A=    0.0000 R=    0.0000 C=    0.0000
 XYZ=    7.1402   -0.8426   -7.7884 Q=   -0.8200 A=    0.0000 R=    0.0000 C=    0.0000
 XYZ=    7.5191   -0.4597   -6.9458 Q=    0.4100 A=    0.0000 R=    0.0000 C=    0.0000
 XYZ=    6.2342   -1.2235   -7.6034 Q=    0.4100 A=    0.0000 R=    0.0000 C=    0.0000
 XYZ=   -7.9014   -2.9081    4.1703 Q=   -0.8200 A=    0.0000 R=    0.0000 C=    0.0000
 XYZ=   -7.8979   -2.4306    3.2917 Q=    0.4100 A=    0.0000 R=    0.0000 C=    0.0000
 XYZ=   -8.6064   -3.6173    4.1614 Q=    0.4100 A=    0.0000 R=    0.0000 C=    0.0000
 XYZ=    6.1174    1.1197    6.7595 Q=   -0.8200 A=    0.0000 R=    0.0000 C=    0.0000
 XYZ=    6.8647    1.6063    6.3069 Q=    0.4100 A=    0.0000 R=    0.0000 C=    0.0000
 XYZ=    5.6013    1.7583    7.3304 Q=    0.4100 A=    0.0000 R=    0.0000 C=    0.0000
 XYZ=   -7.5872    4.1159    4.9259 Q=   -0.8200 A=    0.0000 R=    0.0000 C=    0.0000
 XYZ=   -7.2258    3.1838    4.9008 Q=    0.4100 A=    0.0000 R=    0.0000 C=    0.0000
 XYZ=   -7.0116    4.6807    5.5172 Q=    0.4100 A=    0.0000 R=    0.0000 C=    0.0000
 XYZ=    9.0640   -5.3867   -1.3869 Q=   -0.8200 A=    0.0000 R=    0.0000 C=    0.0000
 XYZ=   10.0248   -5.5927   -1.5724 Q=    0.4100 A=    0.0000 R=    0.0000 C=    0.0000
 XYZ=    8.4896   -5.8244   -2.0787 Q=    0.4100 A=    0.0000 R=    0.0000 C=    0.0000
 XYZ=   -0.9492   -1.9414  -10.3755 Q=   -0.8200 A=    0.0000 R=    0.0000 C=    0.0000
 XYZ=   -0.9228   -2.8836  -10.7097 Q=    0.4100 A=    0.0000 R=    0.0000 C=    0.0000
 XYZ=   -1.3575   -1.9229   -9.4629 Q=    0.4100 A=    0.0000 R=    0.0000 C=    0.0000
 XYZ=   -9.0985    1.6893   -4.2709 Q=   -0.8200 A=    0.0000 R=    0.0000 C=    0.0000
 XYZ=   -9.0849    1.5655   -3.2786 Q=    0.4100 A=    0.0000 R=    0.0000 C=    0.0000
 XYZ=   -9.9799    1.3855   -4.6327 Q=    0.4100 A=    0.0000 R=    0.0000 C=    0.0000
 XYZ=    6.2301    3.9355   -5.7364 Q=   -0.8200 A=    0.0000 R=    0.0000 C=    0.0000
 XYZ=    6.8517    4.7073   -5.8704 Q=    0.4100 A=    0.0000 R=    0.0000 C=    0.0000
 XYZ=    6.4619    3.2054   -6.3793 Q=    0.4100 A=    0.0000 R=    0.0000 C=    0.0000
 XYZ=   -0.0783   -9.5477    2.5896 Q=   -0.8200 A=    0.0000 R=    0.0000 C=    0.0000
 XYZ=   -0.1985   -8.7094    2.0578 Q=    0.4100 A=    0.0000 R=    0.0000 C=    0.0000
 XYZ=    0.7188  -10.0467    2.2494 Q=    0.4100 A=    0.0000 R=    0.0000 C=    0.0000
 XYZ=    8.2371    3.8138   -2.4622 Q=   -0.8200 A=    0.0000 R=    0.0000 C=    0.0000
 XYZ=    8.8270    3.1717   -1.9725 Q=    0.4100 A=    0.0000 R=    0.0000 C=    0.0000
 XYZ=    8.2210    4.6881   -1.9769 Q=    0.4100 A=    0.0000 R=    0.0000 C=    0.0000
 XYZ=    0.9569   -5.5017    8.4001 Q=   -0.8200 A=    0.0000 R=    0.0000 C=    0.0000
 XYZ=    1.2323   -5.5048    7.4387 Q=    0.4100 A=    0.0000 R=    0.0000 C=    0.0000
 XYZ=    1.5458   -6.1227    8.9174 Q=    0.4100 A=    0.0000 R=    0.0000 C=    0.0000
 XYZ=   -1.6494    8.5023    2.3339 Q=   -0.8200 A=    0.0000 R=    0.0000 C=    0.0000
 XYZ=   -2.2245    8.1371    3.0660 Q=    0.4100 A=    0.0000 R=    0.0000 C=    0.0000
 XYZ=   -2.1457    9.2213    1.8474 Q=    0.4100 A=    0.0000 R=    0.0000 C=    0.0000
 XYZ=   -5.6311    2.5844   -7.8746 Q=   -0.8200 A=    0.0000 R=    0.0000 C=    0.0000
 XYZ=   -5.4618    3.3285   -8.5209 Q=    0.4100 A=    0.0000 R=    0.0000 C=    0.0000
 XYZ=   -4.9336    1.8773   -7.9904 Q=    0.4100 A=    0.0000 R=    0.0000 C=    0.0000
 XYZ=   -9.7847    0.5439    2.4314 Q=   -0.8200 A=    0.0000 R=    0.0000 C=    0.0000
 XYZ=   -8.8770    0.7916    2.7701 Q=    0.4100 A=    0.0000 R=    0.0000 C=    0.0000
 XYZ=   -9.6945   -0.1325    1.7004 Q=    0.4100 A=    0.0000 R=    0.0000 C=    0.0000
 XYZ=    7.6196    5.2145    2.2732 Q=   -0.8200 A=    0.0000 R=    0.0000 C=    0.0000
 XYZ=    6.7186    4.9189    2.5906 Q=    0.4100 A=    0.0000 R=    0.0000 C=    0.0000
 XYZ=    8.1914    4.4127    2.0996 Q=    0.4100 A=    0.0000 R=    0.0000 C=    0.0000
 XYZ=    3.0246    1.8616    9.2607 Q=   -0.8200 A=    0.0000 R=    0.0000 C=    0.0000
 XYZ=    3.8825    2.2587    8.9345 Q=    0.4100 A=    0.0000 R=    0.0000 C=    0.0000
 XYZ=    2.4435    1.6353    8.4789 Q=    0.4100 A=    0.0000 R=    0.0000 C=    0.0000
 XYZ=    0.7674    8.5123    2.9356 Q=   -0.8200 A=    0.0000 R=    0.0000 C=    0.0000
 XYZ=   -0.2131    8.5294    2.7395 Q=    0.4100 A=    0.0000 R=    0.0000 C=    0.0000
 XYZ=    0.9360    7.9466    3.7427 Q=    0.4100 A=    0.0000 R=    0.0000 C=    0.0000
 XYZ=   -4.2555   -7.0967   -0.9330 Q=   -0.8200 A=    0.0000 R=    0.0000 C=    0.0000
 XYZ=   -4.1226   -6.9890   -1.9184 Q=    0.4100 A=    0.0000 R=    0.0000 C=    0.0000
 XYZ=   -4.5945   -8.0177   -0.7412 Q=    0.4100 A=    0.0000 R=    0.0000 C=    0.0000
 XYZ=    5.5377    6.8518   -1.0391 Q=   -0.8200 A=    0.0000 R=    0.0000 C=    0.0000
 XYZ=    4.6423    6.9870   -0.6149 Q=    0.4100 A=    0.0000 R=    0.0000 C=    0.0000
 XYZ=    6.2529    6.9526   -0.3474 Q=    0.4100 A=    0.0000 R=    0.0000 C=    0.0000
 XYZ=    9.8528   -5.2834    0.9874 Q=   -0.8200 A=    0.0000 R=    0.0000 C=    0.0000
 XYZ=    9.1975   -4.9551    1.6676 Q=    0.4100 A=    0.0000 R=    0.0000 C=    0.0000
 XYZ=    9.5206   -5.0618    0.0705 Q=    0.4100 A=    0.0000 R=    0.0000 C=    0.0000
 XYZ=   -6.8713    7.4322    2.1949 Q=   -0.8200 A=    0.0000 R=    0.0000 C=    0.0000
 XYZ=   -7.1213    6.4712    2.3141 Q=    0.4100 A=    0.0000 R=    0.0000 C=    0.0000
 XYZ=   -6.2960    7.7242    2.9589 Q=    0.4100 A=    0.0000 R=    0.0000 C=    0.0000
 XYZ=    9.5419    1.9811    4.1900 Q=   -0.8200 A=    0.0000 R=    0.0000 C=    0.0000
 XYZ=    8.8344    1.4303    3.7471 Q=    0.4100 A=    0.0000 R=    0.0000 C=    0.0000
 XYZ=   10.3235    1.3999    4.4166 Q=    0.4100 A=    0.0000 R=    0.0000 C=    0.0000
 XYZ=    4.3280   -5.8968   -8.5324 Q=   -0.8200 A=    0.0000 R=    0.0000 C=    0.0000
 XYZ=    4.9958   -5.8095   -9.2715 Q=    0.4100 A=    0.0000 R=    0.0000 C=    0.0000
 XYZ=    4.5730   -5.2769   -7.7869 Q=    0.4100 A=    0.0000 R=    0.0000 C=    0.0000
 XYZ=   -4.9401    4.2810    8.1693 Q=   -0.8200 A=    0.0000 R=    0.0000 C=    0.0000
 XYZ=   -5.5329    5.0765    8.2949 Q=    0.4100 A=    0.0000 R=    0.0000 C=    0.0000
 XYZ=   -4.1032    4.5601    7.6984 Q=    0.4100 A=    0.0000 R=    0.0000 C=    0.0000
 XYZ=    0.7888   -8.5972    4.8891 Q=   -0.8200 A=    0.0000 R=    0.0000 C=    0.0000
 XYZ=   -0.0371   -8.3757    5.4076 Q=    0.4100 A=    0.0000 R=    0.0000 C=    0.0000
 XYZ=    0.5551   -8.7133    3.9236 Q=    0.4100 A=    0.0000 R=    0.0000 C=    0.0000
 XYZ=   -0.3380   -7.1478   -8.0089 Q=   -0.8200 A=    0.0000 R=    0.0000 C=    0.0000
 XYZ=   -0.1851   -6.2379   -7.6231 Q=    0.4100 A=    0.0000 R=    0.0000 C=    0.0000
 XYZ=   -1.0828   -7.5978   -7.5163 Q=    0.4100 A=    0.0000 R=    0.0000 C=    0.0000
 XYZ=    5.8067    1.2724   -8.2742 Q=   -0.8200 A=    0.0000 R=    0.0000 C=    0.0000
 XYZ=    6.4407    1.9238   -7.8572 Q=    0.4100 A=    0.0000 R=    0.0000 C=    0.0000
 XYZ=    6.2421    0.3740   -8.3322 Q=    0.4100 A=    0.0000 R=    0.0000 C=    0.0000
 XYZ=   -1.8623    4.5560    9.5045 Q=   -0.8200 A=    0.0000 R=    0.0000 C=    0.0000
 XYZ=   -2.0996    5.4808    9.2070 Q=    0.4100 A=    0.0000 R=    0.0000 C=    0.0000
 XYZ=   -1.4710    4.0489    8.7365 Q=    0.4100 A=    0.0000 R=    0.0000 C=    0.0000
 XYZ=    7.1673   -8.2695   -1.9127 Q=   -0.8200 A=    0.0000 R=    0.0000 C=    0.0000
 XYZ=    7.8992   -8.7036   -1.3875 Q=    0.4100 A=    0.0000 R=    0.0000 C=    0.0000
 XYZ=    7.5548   -7.5587   -2.4998 Q=    0.4100 A=    0.0000 R=    0.0000 C=    0.0000
 XYZ=   11.1166   -1.3869   -3.5512 Q=   -0.8200 A=    0.0000 R=    0.0000 C=    0.0000
 XYZ=   10.4162   -1.5247   -2.8508 Q=    0.4100 A=    0.0000 R=    0.0000 C=    0.0000
 XYZ=   12.0231   -1.4691   -3.1368 Q=    0.4100 A=    0.0000 R=    0.0000 C=    0.0000
 XYZ=   10.9147   -1.9399   -0.1259 Q=   -0.8200 A=    0.0000 R=    0.0000 C=    0.0000
 XYZ=   11.3071   -2.8199    0.1419 Q=    0.4100 A=    0.0000 R=    0.0000 C=    0.0000
 XYZ=   10.5631   -1.4713    0.6846 Q=    0.4100 A=    0.0000 R=    0.0000 C=    0.0000
 XYZ=   -8.6467    3.5235   -5.8029 Q=   -0.8200 A=    0.0000 R=    0.0000 C=    0.0000
 XYZ=   -8.0761    4.1121   -5.2302 Q=    0.4100 A=    0.0000 R=    0.0000 C=    0.0000
 XYZ=   -9.0222    2.7812   -5.2479 Q=    0.4100 A=    0.0000 R=    0.0000 C=    0.0000
 XYZ=   -4.5022   -1.2433   -8.9174 Q=   -0.8200 A=    0.0000 R=    0.0000 C=    0.0000
 XYZ=   -5.2742   -1.8547   -8.7434 Q=    0.4100 A=    0.0000 R=    0.0000 C=    0.0000
 XYZ=   -4.3536   -1.1664   -9.9033 Q=    0.4100 A=    0.0000 R=    0.0000 C=    0.0000
 XYZ=    2.6496    0.4574  -10.4122 Q=   -0.8200 A=    0.0000 R=    0.0000 C=    0.0000
 XYZ=    2.2842    1.2732  -10.8605 Q=    0.4100 A=    0.0000 R=    0.0000 C=    0.0000
 XYZ=    1.9607   -0.2674  -10.4263 Q=    0.4100 A=    0.0000 R=    0.0000 C=    0.0000
 XYZ=    6.2298    4.3382    6.0900 Q=   -0.8200 A=    0.0000 R=    0.0000 C=    0.0000
 XYZ=    6.8608    5.1107    6.1597 Q=    0.4100 A=    0.0000 R=    0.0000 C=    0.0000
 XYZ=    6.7466    3.5005    5.9133 Q=    0.4100 A=    0.0000 R=    0.0000 C=    0.0000
 XYZ=    1.3596   -1.4481  -10.8427 Q=   -0.8200 A=    0.0000 R=    0.0000 C=    0.0000
 XYZ=    1.8882   -2.2668  -11.0675 Q=    0.4100 A=    0.0000 R=    0.0000 C=    0.0000
 XYZ=    0.4599   -1.7165  -10.4982 Q=    0.4100 A=    0.0000 R=    0.0000 C=    0.0000
 XYZ=    7.5016   -0.6351    7.7672 Q=   -0.8200 A=    0.0000 R=    0.0000 C=    0.0000
 XYZ=    7.0233    0.1569    7.3878 Q=    0.4100 A=    0.0000 R=    0.0000 C=    0.0000
 XYZ=    8.4683   -0.4119    7.8927 Q=    0.4100 A=    0.0000 R=    0.0000 C=    0.0000
 XYZ=   -6.1588    8.4197    0.1526 Q=   -0.8200 A=    0.0000 R=    0.0000 C=    0.0000
 XYZ=   -6.7094    9.0977   -0.3343 Q=    0.4100 A=    0.0000 R=    0.0000 C=    0.0000
 XYZ=   -6.6956    8.0295    0.9007 Q=    0.4100 A=    0.0000 R=    0.0000 C=    0.0000
 XYZ=   -6.8643   -6.2116    5.0019 Q=   -0.8200 A=    0.0000 R=    0.0000 C=    0.0000
 XYZ=   -7.6655   -6.3368    4.4168 Q=    0.4100 A=    0.0000 R=    0.0000 C=    0.0000
 XYZ=   -6.4022   -5.3594    4.7564 Q=    0.4100 A=    0.0000 R=    0.0000 C=    0.0000
 XYZ=    7.8325    2.5194    5.9191 Q=   -0.8200 A=    0.0000 R=    0.0000 C=    0.0000
 XYZ=    8.3280    2.3528    5.0666 Q=    0.4100 A=    0.0000 R=    0.0000 C=    0.0000
 XYZ=    8.4858    2.6317    6.6679 Q=    0.4100 A=    0.0000 R=    0.0000 C=    0.0000
 XYZ=   -2.9525    6.5181    8.5178 Q=   -0.8200 A=    0.0000 R=    0.0000 C=    0.0000
 XYZ=   -2.9071    5.8889    7.7419 Q=    0.4100 A=    0.0000 R=    0.0000 C=    0.0000
 XYZ=   -3.9022    6.7919    8.6697 Q=    0.4100 A=    0.0000 R=    0.0000 C=    0.0000
 XYZ=    4.9215   -2.5994  -10.1781 Q=   -0.8200 A=    0.0000 R=    0.0000 C=    0.0000
 XYZ=    4.8663   -2.3431   -9.2130 Q=    0.4100 A=    0.0000 R=    0.0000 C=    0.0000
 XYZ=    5.8488   -2.9094  -10.3880 Q=    0.4100 A=    0.0000 R=    0.0000 C=    0.0000
 XYZ=   -2.2416    1.7848  -11.2966 Q=   -0.8200 A=    0.0000 R=    0.0000 C=    0.0000
 XYZ=   -2.1775    1.7054  -10.3018 Q=    0.4100 A=    0.0000 R=    0.0000 C=    0.0000
 XYZ=   -1.9346    0.9322  -11.7194 Q=    0.4100 A=    0.0000 R=    0.0000 C=    0.0000
 XYZ=   -4.3509    9.7248   -0.6610 Q=   -0.8200 A=    0.0000 R=    0.0000 C=    0.0000
 XYZ=   -4.6609   10.3461   -1.3807 Q=    0.4100 A=    0.0000 R=    0.0000 C=    0.0000
 XYZ=   -5.1157    9.1550   -0.3603 Q=    0.4100 A=    0.0000 R=    0.0000 C=    0.0000
 XYZ=    1.6907   10.1374   -0.6481 Q=   -0.8200 A=    0.0000 R=    0.0000 C=    0.0000
 XYZ=    2.6075   10.5314   -0.7134 Q=    0.4100 A=    0.0000 R=    0.0000 C=    0.0000
 XYZ=    1.6337    9.3275   -1.2320 Q=    0.4100 A=    0.0000 R=    0.0000 C=    0.0000
 XYZ=    9.0586    2.1498   -5.5140 Q=   -0.8200 A=    0.0000 R=    0.0000 C=    0.0000
 XYZ=    9.2141    3.1201   -5.3286 Q=    0.4100 A=    0.0000 R=    0.0000 C=    0.0000
 XYZ=    9.8679    1.6258   -5.2482 Q=    0.4100 A=    0.0000 R=    0.0000 C=    0.0000
 XYZ=   -1.4240   -7.8241    5.8306 Q=   -0.8200 A=    0.0000 R=    0.0000 C=    0.0000
 XYZ=   -1.1215   -7.4986    6.7264 Q=    0.4100 A=    0.0000 R=    0.0000 C=    0.0000
 XYZ=   -2.3673   -8.1498    5.8954 Q=    0.4100 A=    0.0000 R=    0.0000 C=    0.0000
 XYZ=   -7.5370   -6.9553    1.0736 Q=   -0.8200 A=    0.0000 R=    0.0000 C=    0.0000
 XYZ=   -8.3772   -6.6147    0.6515 Q=    0.4100 A=    0.0000 R=    0.0000 C=    0.0000
 XYZ=   -6.7670   -6.3824    0.7927 Q=    0.4100 A=    0.0000 R=    0.0000 C=    0.0000
 XYZ=  -10.9981   -1.3418   -2.6057 Q=   -0.8200 A=    0.0000 R=    0.0000 C=    0.0000
 XYZ=  -11.5340   -0.5098   -2.7496 Q=    0.4100 A=    0.0000 R=    0.0000 C=    0.0000
 XYZ=  -10.1661   -1.1186   -2.0977 Q=    0.4100 A=    0.0000 R=    0.0000 C=    0.0000
 XYZ=  -10.0525    2.8094    1.6389 Q=   -0.8200 A=    0.0000 R=    0.0000 C=    0.0000
 XYZ=  -10.6482    2.9075    0.8416 Q=    0.4100 A=    0.0000 R=    0.0000 C=    0.0000
 XYZ=  -10.1221    1.8771    1.9940 Q=    0.4100 A=    0.0000 R=    0.0000 C=    0.0000
 XYZ=    9.2972    4.4244   -4.5785 Q=   -0.8200 A=    0.0000 R=    0.0000 C=    0.0000
 XYZ=    8.7257    4.2842   -3.7700 Q=    0.4100 A=    0.0000 R=    0.0000 C=    0.0000
 XYZ=   10.2415    4.5908   -4.2943 Q=    0.4100 A=    0.0000 R=    0.0000 C=    0.0000
 XYZ=   -1.0456    9.5018   -4.8749 Q=   -0.8200 A=    0.0000 R=    0.0000 C=    0.0000
 XYZ=   -1.3096   10.4475   -5.0645 Q=    0.4100 A=    0.0000 R=    0.0000 C=    0.0000
 XYZ=   -1.7947    8.8896   -5.1278 Q=    0.4100 A=    0.0000 R=    0.0000 C=    0.0000
 XYZ=   -6.2869    6.0731    5.6709 Q=   -0.8200 A=    0.0000 R=    0.0000 C=    0.0000
 XYZ=   -6.3648    6.9636    5.2225 Q=    0.4100 A=    0.0000 R=    0.0000 C=    0.0000
 XYZ=   -6.2894    6.1982    6.6631 Q=    0.4100 A=    0.0000 R=    0.0000 C=    0.0000
 XYZ=   -5.2831   -7.8063    4.3709 Q=   -0.8200 A=    0.0000 R=    0.0000 C=    0.0000
 XYZ=   -4.6829   -7.4849    3.6385 Q=    0.4100 A=    0.0000 R=    0.0000 C=    0.0000
 XYZ=   -5.9637   -7.1032    4.5767 Q=    0.4100 A=    0.0000 R=    0.0000 C=    0.0000
 XYZ=   -5.4062   -7.0060   -3.8944 Q=   -0.8200 A=    0.0000 R=    0.0000 C=    0.0000
 XYZ=   -6.1978   -6.8403   -3.3062 Q=    0.4100 A=    0.0000 R=    0.0000 C=    0.0000
 XYZ=   -5.4924   -6.4632   -4.7299 Q=    0.4100 A=    0.0000 R=    0.0000 C=    0.0000
 XYZ=   -6.2052    0.8224    8.9427 Q=   -0.8200 A=    0.0000 R=    0.0000 C=    0.0000
 XYZ=   -6.6909    0.4501    8.1518 Q=    0.4100 A=    0.0000 R=    0.0000 C=    0.0000
 XYZ=   -5.7261    0.0840    9.4175 Q=    0.4100 A=    0.0000 R=    0.0000 C=    0.0000
 XYZ=    1.7315    3.7944    9.2241 Q=   -0.8200 A=    0.0000 R=    0.0000 C=    0.0000
 XYZ=    1.0798    3.8698    9.9788 Q=    0.4100 A=    0.0000 R=    0.0000 C=    0.0000
 XYZ=    2.2717    2.9599    9.3324 Q=    0.4100 A=    0.0000 R=    0.0000 C=    0.0000
 XYZ=   -2.8342   10.1651    0.9977 Q=   -0.8200 A=    0.0000 R=    0.0000 C=    0.0000
 XYZ=   -3.3886   10.3890    1.7994 Q=    0.4100 A=    0.0000 R=    0.0000 C=    0.0000
 XYZ=   -3.4334    9.9087    0.2393 Q=    0.4100 A=    0.0000 R=    0.0000 C=    0.0000
 XYZ=    7.5200    2.7087   -7.4403 Q=   -0.8200 A=    0.0000 R=    0.0000 C=    0.0000
 XYZ=    7.8463    3.5699   -7.8299 Q=    0.4100 A=    0.0000 R=    0.0000 C=    0.0000
 XYZ=    8.1654    2.3916   -6.7453 Q=    0.4100 A=    0.0000 R=    0.0000 C=    0.0000
 XYZ=    9.5716   -7.5397    1.0848 Q=   -0.8200 A=    0.0000 R=    0.0000 C=    0.0000
 XYZ=    9.9940   -6.6362    1.0125 Q=    0.4100 A=    0.0000 R=    0.0000 C=    0.0000
 XYZ=    8.5812   -7.4379    1.1788 Q=    0.4100 A=    0.0000 R=    0.0000 C=    0.0000
 XYZ=   -5.1036   -4.5797   -7.7361 Q=   -0.8200 A=    0.0000 R=    0.0000 C=    0.0000
 XYZ=   -4.5666   -4.9182   -8.5088 Q=    0.4100 A=    0.0000 R=    0.0000 C=    0.0000
 XYZ=   -5.6485   -3.7936   -8.0279 Q=    0.4100 A=    0.0000 R=    0.0000 C=    0.0000
 XYZ=    5.1051    2.4831    8.4549 Q=   -0.8200 A=    0.0000 R=    0.0000 C=    0.0000
 XYZ=    5.7098    2.2304    9.2102 Q=    0.4100 A=    0.0000 R=    0.0000 C=    0.0000
 XYZ=    5.1832    3.4645    8.2794 Q=    0.4100 A=    0.0000 R=    0.0000 C=    0.0000
 XYZ=   -8.1142    2.0695   -7.6724 Q=   -0.8200 A=    0.0000 R=    0.0000 C=    0.0000
 XYZ=   -8.3275    2.5837   -6.8416 Q=    0.4100 A=    0.0000 R=    0.0000 C=    0.0000
 XYZ=   -7.1377    2.1499   -7.8727 Q=    0.4100 A=    0.0000 R=    0.0000 C=    0.0000
 XYZ=   -1.0517   -6.8312    7.9563 Q=   -0.8200 A=    0.0000 R=    0.0000 C=    0.0000
 XYZ=   -0.3074   -6.1908    8.1461 Q=    0.4100 A=    0.0000 R=    0.0000 C=    0.0000
 XYZ=   -1.9153   -6.3304    7.8975 Q=    0.4100 A=    0.0000 R=    0.0000 C=    0.0000
 XYZ=    1.2954    9.0189   -4.2925 Q=   -0.8200 A=    0.0000 R=    0.0000 C=    0.0000
 XYZ=    0.3468    9.1284   -4.5895 Q=    0.4100 A=    0.0000 R=    0.0000 C=    0.0000
 XYZ=    1.9081    9.1915   -5.0638 Q=    0.4100 A=    0.0000 R=    0.0000 C=    0.0000
 XYZ=   11.3958    2.1736   -2.8141 Q=   -0.8200 A=    0.0000 R=    0.0000 C=    0.0000
 XYZ=   10.5981    2.2853   -2.2214 Q=    0.4100 A=    0.0000 R=    0.0000 C=    0.0000
 XYZ=   12.1590    1.8088   -2.2806 Q=    0.4100 A=    0.0000 R=    0.0000 C=    0.0000
 XYZ=   -0.4790   -3.9615    9.5762 Q=   -0.8200 A=    0.0000 R=    0.0000 C=    0.0000
 XYZ=    0.3169   -4.4753    9.2560 Q=    0.4100 A=    0.0000 R=    0.0000 C=    0.0000
 XYZ=   -1.2341   -4.5929    9.7530 Q=    0.4100 A=    0.0000 R=    0.0000 C=    0.0000
 XYZ=   11.8361    1.0443    0.9079 Q=   -0.8200 A=    0.0000 R=    0.0000 C=    0.0000
 XYZ=   11.1130    0.3589    0.9941 Q=    0.4100 A=    0.0000 R=    0.0000 C=    0.0000
 XYZ=   11.4259    1.9492    0.7949 Q=    0.4100 A=    0.0000 R=    0.0000 C=    0.0000
 XYZ=    0.9763    8.7295    6.7876 Q=   -0.8200 A=    0.0000 R=    0.0000 C=    0.0000
 XYZ=    0.9521    8.0490    6.0553 Q=    0.4100 A=    0.0000 R=    0.0000 C=    0.0000
 XYZ=    1.7989    9.2905    6.6942 Q=    0.4100 A=    0.0000 R=    0.0000 C=    0.0000
 XYZ=   10.7177    3.0592    0.4235 Q=   -0.8200 A=    0.0000 R=    0.0000 C=    0.0000
 XYZ=   10.0888    3.1604    1.1944 Q=    0.4100 A=    0.0000 R=    0.0000 C=    0.0000
 XYZ=   11.3443    3.8383    0.4002 Q=    0.4100 A=    0.0000 R=    0.0000 C=    0.0000
 XYZ=    1.8989    2.3918  -11.4155 Q=   -0.8200 A=    0.0000 R=    0.0000 C=    0.0000
 XYZ=    1.4984    2.9555  -10.6931 Q=    0.4100 A=    0.0000 R=    0.0000 C=    0.0000
 XYZ=    2.7620    2.7982  -11.7154 Q=    0.4100 A=    0.0000 R=    0.0000 C=    0.0000
 XYZ=   10.5935    0.8820   -4.4907 Q=   -0.8200 A=    0.0000 R=    0.0000 C=    0.0000
 XYZ=   10.8278    1.5452   -3.7798 Q=    0.4100 A=    0.0000 R=    0.0000 C=    0.0000
 XYZ=   10.7619   -0.0436   -4.1515 Q=    0.4100 A=    0.0000 R=    0.0000 C=    0.0000
 XYZ=   -5.8626   -6.0769   -6.0843 Q=   -0.8200 A=    0.0000 R=    0.0000 C=    0.0000
 XYZ=   -5.5148   -5.4225   -6.7557 Q=    0.4100 A=    0.0000 R=    0.0000 C=    0.0000
 XYZ=   -6.7874   -6.3579   -6.3409 Q=    0.4100 A=    0.0000 R=    0.0000 C=    0.0000
 XYZ=   -4.6338    9.4900   -5.3265 Q=   -0.8200 A=    0.0000 R=    0.0000 C=    0.0000
 XYZ=   -3.8938    8.9420   -4.9364 Q=    0.4100 A=    0.0000 R=    0.0000 C=    0.0000
 XYZ=   -4.3253    9.9057   -6.1821 Q=    0.4100 A=    0.0000 R=    0.0000 C=    0.0000
 XYZ=    1.4381   -4.7042   -9.9204 Q=   -0.8200 A=    0.0000 R=    0.0000 C=    0.0000
 XYZ=    2.1166   -4.1790  -10.4341 Q=    0.4100 A=    0.0000 R=    0.0000 C=    0.0000
 XYZ=    1.8023   -5.6139   -9.7206 Q=    0.4100 A=    0.0000 R=    0.0000 C=    0.0000
 XYZ=   -2.1361   -0.5133  -11.7010 Q=   -0.8200 A=    0.0000 R=    0.0000 C=    0.0000
 XYZ=   -1.6518   -1.0671  -11.0236 Q=    0.4100 A=    0.0000 R=    0.0000 C=    0.0000
 XYZ=   -3.1223   -0.6054  -11.5631 Q=    0.4100 A=    0.0000 R=    0.0000 C=    0.0000
 XYZ=   -9.7770    4.0572    3.9694 Q=   -0.8200 A=    0.0000 R=    0.0000 C=    0.0000
 XYZ=   -9.6424    3.9368    2.9858 Q=    0.4100 A=    0.0000 R=    0.0000 C=    0.0000
 XYZ=   -8.8879    4.1333    4.4206 Q=    0.4100 A=    0.0000 R=    0.0000 C=    0.0000
 XYZ=    6.0746   -2.0231    9.0720 Q=   -0.8200 A=    0.0000 R=    0.0000 C=    0.0000
 XYZ=    6.6899   -1.4173    8.5675 Q=    0.4100 A=    0.0000 R=    0.0000 C=    0.0000
 XYZ=    6.6013   -2.5579    9.7328 Q=    0.4100 A=    0.0000 R=    0.0000 C=    0.0000
 XYZ=    7.5725    6.8934    0.2851 Q=   -0.8200 A=    0.0000 R=    0.0000 C=    0.0000
 XYZ=    7.8622    7.8094    0.5627 Q=    0.4100 A=    0.0000 R=    0.0000 C=    0.0000
 XYZ=    7.5549    6.2929    1.0846 Q=    0.4100 A=    0.0000 R=    0.0000 C=    0.0000
 XYZ=    3.4427   -8.0569   -7.5256 Q=   -0.8200 A=    0.0000 R=    0.0000 C=    0.0000
 XYZ=    3.9910   -7.2895   -7.8577 Q=    0.4100 A=    0.0000 R=    0.0000 C=    0.0000
 XYZ=    3.9975   -8.6243   -6.9171 Q=    0.4100 A=    0.0000 R=    0.0000 C=    0.0000
 XYZ=   10.0555   -3.0342   -7.0461 Q=   -0.8200 A=    0.0000 R=    0.0000 C=    0.0000
 XYZ=    9.3756   -2.6501   -7.6709 Q=    0.4100 A=    0.0000 R=    0.0000 C=    0.0000
 XYZ=    9.8648   -2.7242   -6.1147 Q=    0.4100 A=    0.0000 R=    0.0000 C=    0.0000
 XYZ=   11.7586   -4.1931    0.2967 Q=   -0.8200 A=    0.0000 R=    0.0000 C=    0.0000
 XYZ=   10.9565   -4.6021    0.7318 Q=    0.4100 A=    0.0000 R=    0.0000 C=    0.0000
 XYZ=   12.2377   -4.8881   -0.2395 Q=    0.4100 A=    0.0000 R=    0.0000 C=    0.0000
 XYZ=    8.3796   -2.7514   -8.6928 Q=   -0.8200 A=    0.0000 R=    0.0000 C=    0.0000
 XYZ=    7.9274   -1.8961   -8.4400 Q=    0.4100 A=    0.0000 R=    0.0000 C=    0.0000
 XYZ=    7.9473   -3.5125   -8.2091 Q=    0.4100 A=    0.0000 R=    0.0000 C=    0.0000
 XYZ=   -2.4606    4.9994   -9.6430 Q=   -0.8200 A=    0.0000 R=    0.0000 C=    0.0000
 XYZ=   -2.2619    5.8337  -10.1573 Q=    0.4100 A=    0.0000 R=    0.0000 C=    0.0000
 XYZ=   -3.4306    4.7743   -9.7349 Q=    0.4100 A=    0.0000 R=    0.0000 C=    0.0000
 XYZ=    1.5049   10.4834    1.8666 Q=   -0.8200 A=    0.0000 R=    0.0000 C=    0.0000
 XYZ=    1.0253    9.7480    2.3455 Q=    0.4100 A=    0.0000 R=    0.0000 C=    0.0000
 XYZ=    1.7029   10.1969    0.9292 Q=    0.4100 A=    0.0000 R=    0.0000 C=    0.0000
 XYZ=    5.4217    4.7766    8.3039 Q=   -0.8200 A=    0.0000 R=    0.0000 C=    0.0000
 XYZ=    6.1938    5.1334    8.8298 Q=    0.4100 A=    0.0000 R=    0.0000 C=    0.0000
 XYZ=    5.7068    4.6186    7.3586 Q=    0.4100 A=    0.0000 R=    0.0000 C=    0.0000
 XYZ=    7.3814   -4.7892   -8.1210 Q=   -0.8200 A=    0.0000 R=    0.0000 C=    0.0000
 XYZ=    8.0885   -5.3310   -7.6667 Q=    0.4100 A=    0.0000 R=    0.0000 C=    0.0000
 XYZ=    6.9798   -5.3225   -8.8656 Q=    0.4100 A=    0.0000 R=    0.0000 C=    0.0000
 XYZ=   -4.0072    3.5760   10.1651 Q=   -0.8200 A=    0.0000 R=    0.0000 C=    0.0000
 XYZ=   -3.0816    3.8465    9.9001 Q=    0.4100 A=    0.0000 R=    0.0000 C=    0.0000
 XYZ=   -4.6180    3.6628    9.3781 Q=    0.4100 A=    0.0000 R=    0.0000 C=    0.0000
 XYZ=    8.1679    6.4648   -2.0781 Q=   -0.8200 A=    0.0000 R=    0.0000 C=    0.0000
 XYZ=    7.4287    6.7308   -2.6969 Q=    0.4100 A=    0.0000 R=    0.0000 C=    0.0000
 XYZ=    7.8645    6.5713   -1.1312 Q=    0.4100 A=    0.0000 R=    0.0000 C=    0.0000
 XYZ=  -11.4020   -2.6107    1.0535 Q=   -0.8200 A=    0.0000 R=    0.0000 C=    0.0000
 XYZ=  -10.6077   -2.0108    0.9577 Q=    0.4100 A=    0.0000 R=    0.0000 C=    0.0000
 XYZ=  -11.1568   -3.4011    1.6149 Q=    0.4100 A=    0.0000 R=    0.0000 C=    0.0000
 XYZ=   -2.7850   -9.6843    0.4357 Q=   -0.8200 A=    0.0000 R=    0.0000 C=    0.0000
 XYZ=   -3.6284   -9.4487   -0.0474 Q=    0.4100 A=    0.0000 R=    0.0000 C=    0.0000
 XYZ=   -2.3066  -10.4076   -0.0624 Q=    0.4100 A=    0.0000 R=    0.0000 C=    0.0000
 XYZ=   -0.3847   -4.0366  -11.0659 Q=   -0.8200 A=    0.0000 R=    0.0000 C=    0.0000
 XYZ=    0.4042   -4.4313  -10.5948 Q=    0.4100 A=    0.0000 R=    0.0000 C=    0.0000
 XYZ=   -0.2897   -4.1785  -12.0513 Q=    0.4100 A=    0.0000 R=    0.0000 C=    0.0000
 XYZ=   -0.0172    1.7934   10.7195 Q=   -0.8200 A=    0.0000 R=    0.0000 C=    0.0000
 XYZ=    0.8630    1.5801   11.1438 Q=    0.4100 A=    0.0000 R=    0.0000 C=    0.0000
 XYZ=   -0.2646    2.7406   10.9235 Q=    0.4100 A=    0.0000 R=    0.0000 C=    0.0000
 XYZ=   -3.1899   -5.8626    8.2547 Q=   -0.8200 A=    0.0000 R=    0.0000 C=    0.0000
 XYZ=   -3.8838   -6.5755    8.3560 Q=    0.4100 A=    0.0000 R=    0.0000 C=    0.0000
 XYZ=   -2.8011   -5.6464    9.1504 Q=    0.4100 A=    0.0000 R=    0.0000 C=    0.0000
 XYZ=   12.6534   -1.4488   -1.6341 Q=   -0.8200 A=    0.0000 R=    0.0000 C=    0.0000
 XYZ=   13.5394   -1.6477   -1.2151 Q=    0.4100 A=    0.0000 R=    0.0000 C=    0.0000
 XYZ=   11.9330   -1.5319   -0.9456 Q=    0.4100 A=    0.0000 R=    0.0000 C=    0.0000
 XYZ=   -9.4943    0.9627    7.4641 Q=   -0.8200 A=    0.0000 R=    0.0000 C=    0.0000
 XYZ=   -9.5336    1.5228    8.2917 Q=    0.4100 A=    0.0000 R=    0.0000 C=    0.0000
 XYZ=   -8.5504    0.9173    7.1369 Q=    0.4100 A=    0.0000 R=    0.0000 C=    0.0000
 XYZ=    0.0286    5.1397  -11.4905 Q=   -0.8200 A=    0.0000 R=    0.0000 C=    0.0000
 XYZ=   -0.3206    4.3690  -12.0234 Q=    0.4100 A=    0.0000 R=    0.0000 C=    0.0000
 XYZ=    0.3042    4.8202  -10.5838 Q=    0.4100 A=    0.0000 R=    0.0000 C=    0.0000
 XYZ=    2.9280   -3.2598  -11.1581 Q=   -0.8200 A=    0.0000 R=    0.0000 C=    0.0000
 XYZ=    3.7987   -3.0497  -10.7132 Q=    0.4100 A=    0.0000 R=    0.0000 C=    0.0000
 XYZ=    3.0030   -3.0799  -12.1389 Q=    0.4100 A=    0.0000 R=    0.0000 C=    0.0000
 XYZ=   -4.2975   -7.9049   -6.5210 Q=   -0.8200 A=    0.0000 R=    0.0000 C=    0.0000
 XYZ=   -4.9201   -7.1346   -6.3828 Q=    0.4100 A=    0.0000 R=    0.0000 C=    0.0000
 XYZ=   -4.3508   -8.5215   -5.7355 Q=    0.4100 A=    0.0000 R=    0.0000 C=    0.0000
 XYZ=   -6.3430   -2.8275   -8.7386 Q=   -0.8200 A=    0.0000 R=    0.0000 C=    0.0000
 XYZ=   -7.1580   -2.2856   -8.9441 Q=    0.4100 A=    0.0000 R=    0.0000 C=    0.0000
 XYZ=   -6.2185   -3.5235   -9.4459 Q=    0.4100 A=    0.0000 R=    0.0000 C=    0.0000
 XYZ=   -4.6523   -9.1425   -4.4879 Q=   -0.8200 A=    0.0000 R=    0.0000 C=    0.0000
 XYZ=   -4.7974   -8.2182   -4.1348 Q=    0.4100 A=    0.0000 R=    0.0000 C=    0.0000
 XYZ=   -5.5337   -9.5500   -4.7270 Q=    0.4100 A=    0.0000 R=    0.0000 C=    0.0000
 XYZ=   -6.3398    8.0636    4.4484 Q=   -0.8200 A=    0.0000 R=    0.0000 C=    0.0000
 XYZ=   -7.0434    8.6097    4.9030 Q=    0.4100 A=    0.0000 R=    0.0000 C=    0.0000
 XYZ=   -5.4634    8.5428    4.4962 Q=    0.4100 A=    0.0000 R=    0.0000 C=    0.0000
 XYZ=    8.8439    6.2230    4.0608 Q=   -0.8200 A=    0.0000 R=    0.0000 C=    0.0000
 XYZ=    9.5763    5.6093    4.3558 Q=    0.4100 A=    0.0000 R=    0.0000 C=    0.0000
 XYZ=    8.2795    5.7630    3.3753 Q=    0.4100 A=    0.0000 R=    0.0000 C=    0.0000
 XYZ=   11.0866   -6.1480   -2.6803 Q=   -0.8200 A=    0.0000 R=    0.0000 C=    0.0000
 XYZ=   10.5869   -5.8448   -3.4917 Q=    0.4100 A=    0.0000 R=    0.0000 C=    0.0000
 XYZ=   11.0381   -7.1446   -2.6120 Q=    0.4100 A=    0.0000 R=    0.0000 C=    0.0000
 XYZ=    2.7255   -6.7178   -9.9253 Q=   -0.8200 A=    0.0000 R=    0.0000 C=    0.0000
 XYZ=    2.3514   -7.5694   -9.5579 Q=    0.4100 A=    0.0000 R=    0.0000 C=    0.0000
 XYZ=    3.4347   -6.3727   -9.3104 Q=    0.4100 A=    0.0000 R=    0.0000 C=    0.0000
 XYZ=    9.5689   -6.6303   -4.8461 Q=   -0.8200 A=    0.0000 R=    0.0000 C=    0.0000
 XYZ=    9.5066   -6.3798   -5.8123 Q=    0.4100 A=    0.0000 R=    0.0000 C=    0.0000
 XYZ=   10.0805   -7.4848   -4.7557 Q=    0.4100 A=    0.0000 R=    0.0000 C=    0.0000
 XYZ=    4.6116   -1.3234   11.0080 Q=   -0.8200 A=    0.0000 R=    0.0000 C=    0.0000
 XYZ=    4.8925   -1.7563   10.1514 Q=    0.4100 A=    0.0000 R=    0.0000 C=    0.0000
 XYZ=    5.3459   -0.7302   11.3381 Q=    0.4100 A=    0.0000 R=    0.0000 C=    0.0000
 XYZ=    0.0168   -0.4586  -12.6885 Q=   -0.8200 A=    0.0000 R=    0.0000 C=    0.0000
 XYZ=    0.7109   -0.6926  -12.0078 Q=    0.4100 A=    0.0000 R=    0.0000 C=    0.0000
 XYZ=   -0.8867   -0.4676  -12.2600 Q=    0.4100 A=    0.0000 R=    0.0000 C=    0.0000
 XYZ=   -4.3393    9.2722    4.3925 Q=   -0.8200 A=    0.0000 R=    0.0000 C=    0.0000
 XYZ=   -4.6414    9.7907    5.1925 Q=    0.4100 A=    0.0000 R=    0.0000 C=    0.0000
 XYZ=   -4.3407    9.8681    3.5893 Q=    0.4100 A=    0.0000 R=    0.0000 C=    0.0000
 XYZ=   -2.2028  -10.8570    2.4928 Q=   -0.8200 A=    0.0000 R=    0.0000 C=    0.0000
 XYZ=   -1.3567  -10.4312    2.8135 Q=    0.4100 A=    0.0000 R=    0.0000 C=    0.0000
 XYZ=   -2.4368  -10.4949    1.5904 Q=    0.4100 A=    0.0000 R=    0.0000 C=    0.0000
 XYZ=  -11.5230    1.3304   -2.2513 Q=   -0.8200 A=    0.0000 R=    0.0000 C=    0.0000
 XYZ=  -12.0391    1.7812   -2.9796 Q=    0.4100 A=    0.0000 R=    0.0000 C=    0.0000
 XYZ=  -12.0962    1.2527   -1.4356 Q=    0.4100 A=    0.0000 R=    0.0000 C=    0.0000
 XYZ=   -0.2274    4.0938   11.0717 Q=   -0.8200 A=    0.0000 R=    0.0000 C=    0.0000
 XYZ=   -0.2974    4.6184   11.9202 Q=    0.4100 A=    0.0000 R=    0.0000 C=    0.0000
 XYZ=   -1.0261    4.2784   10.4990 Q=    0.4100 A=    0.0000 R=    0.0000 C=    0.0000
 XYZ=   -2.1898   -8.3257   -7.4357 Q=   -0.8200 A=    0.0000 R=    0.0000 C=    0.0000
 XYZ=   -2.3447   -8.4439   -8.4166 Q=    0.4100 A=    0.0000 R=    0.0000 C=    0.0000
 XYZ=   -3.0595   -8.1307   -6.9822 Q=    0.4100 A=    0.0000 R=    0.0000 C=    0.0000
 XYZ=    3.6972    4.9203   10.0173 Q=   -0.8200 A=    0.0000 R=    0.0000 C=    0.0000
 XYZ=    2.8859    4.4529    9.6659 Q=    0.4100 A=    0.0000 R=    0.0000 C=    0.0000
 XYZ=    4.4089    4.9262    9.3148 Q=    0.4100 A=    0.0000 R=    0.0000 C=    0.0000
 XYZ=    2.2279    1.4163   11.5722 Q=   -0.8200 A=    0.0000 R=    0.0000 C=    0.0000
 XYZ=    2.5498    1.5863   10.6408 Q=    0.4100 A=    0.0000 R=    0.0000 C=    0.0000
 XYZ=    2.3516    0.4496   11.7964 Q=    0.4100 A=    0.0000 R=    0.0000 C=    0.0000
 XYZ=   10.2333    4.2154    4.6621 Q=   -0.8200 A=    0.0000 R=    0.0000 C=    0.0000
 XYZ=    9.9063    3.2890    4.4752 Q=    0.4100 A=    0.0000 R=    0.0000 C=    0.0000
 XYZ=   10.3411    4.3379    5.6487 Q=    0.4100 A=    0.0000 R=    0.0000 C=    0.0000
 XYZ=  -11.6834    0.4326    3.9149 Q=   -0.8200 A=    0.0000 R=    0.0000 C=    0.0000
 XYZ=  -11.6360    1.3672    4.2673 Q=    0.4100 A=    0.0000 R=    0.0000 C=    0.0000
 XYZ=  -10.9109    0.2681    3.3015 Q=    0.4100 A=    0.0000 R=    0.0000 C=    0.0000
 XYZ=    8.0263    5.6907   -6.0427 Q=   -0.8200 A=    0.0000 R=    0.0000 C=    0.0000
 XYZ=    8.6434    5.3097   -5.3541 Q=    0.4100 A=    0.0000 R=    0.0000 C=    0.0000
 XYZ=    8.3422    5.4290   -6.9546 Q=    0.4100 A=    0.0000 R=    0.0000 C=    0.0000
 XYZ=    0.7653   -2.3814   11.5459 Q=   -0.8200 A=    0.0000 R=    0.0000 C=    0.0000
 XYZ=    0.4649   -2.9891   10.8107 Q=    0.4100 A=    0.0000 R=    0.0000 C=    0.0000
 XYZ=   -0.0230   -1.8883   11.9138 Q=    0.4100 A=    0.0000 R=    0.0000 C=    0.0000
 XYZ=    1.5562   -8.5000   -8.8681 Q=   -0.8200 A=    0.0000 R=    0.0000 C=    0.0000
 XYZ=    0.7945   -7.9119   -8.5959 Q=    0.4100 A=    0.0000 R=    0.0000 C=    0.0000
 XYZ=    2.3222   -8.3656   -8.2395 Q=    0.4100 A=    0.0000 R=    0.0000 C=    0.0000
 XYZ=   -3.8662   -8.6477    6.1022 Q=   -0.8200 A=    0.0000 R=    0.0000 C=    0.0000
 XYZ=   -4.4318   -8.2578    5.3754 Q=    0.4100 A=    0.0000 R=    0.0000 C=    0.0000
 XYZ=   -4.0537   -8.1723    6.9617 Q=    0.4100 A=    0.0000 R=    0.0000 C=    0.0000
 XYZ=   -1.6415    0.6307   11.9192 Q=   -0.8200 A=    0.0000 R=    0.0000 C=    0.0000
 XYZ=   -2.5461    0.9746   11.6672 Q=    0.4100 A=    0.0000 R=    0.0000 C=    0.0000
 XYZ=   -0.9432    1.1064   11.3842 Q=    0.4100 A=    0.0000 R=    0.0000 C=    0.0000
 XYZ=    4.2750   -0.9203  -12.1600 Q=   -0.8200 A=    0.0000 R=    0.0000 C=    0.0000
 XYZ=    3.8975   -0.1772  -11.6073 Q=    0.4100 A=    0.0000 R=    0.0000 C=    0.0000
 XYZ=    4.8948   -1.4703  -11.6001 Q=    0.4100 A=    0.0000 R=    0.0000 C=    0.0000
 XYZ=   -2.1040   10.5692    5.4068 Q=   -0.8200 A=    0.0000 R=    0.0000 C=    0.0000
 XYZ=   -1.8186   10.3859    6.3476 Q=    0.4100 A=    0.0000 R=    0.0000 C=    0.0000
 XYZ=   -2.5945    9.7756    5.0467 Q=    0.4100 A=    0.0000 R=    0.0000 C=    0.0000
 XYZ=   -8.5456   -6.7744    3.2570 Q=   -0.8200 A=    0.0000 R=    0.0000 C=    0.0000
 XYZ=   -8.0844   -6.8755    2.3754 Q=    0.4100 A=    0.0000 R=    0.0000 C=    0.0000
 XYZ=   -8.8779   -7.6664    3.5634 Q=    0.4100 A=    0.0000 R=    0.0000 C=    0.0000
 XYZ=   -4.3739   10.8416    2.6686 Q=   -0.8200 A=    0.0000 R=    0.0000 C=    0.0000
 XYZ=   -5.0321   10.3168    2.1287 Q=    0.4100 A=    0.0000 R=    0.0000 C=    0.0000
 XYZ=   -4.8462   11.5897    3.1346 Q=    0.4100 A=    0.0000 R=    0.0000 C=    0.0000
 XYZ=    9.3686   -9.2135   -0.7232 Q=   -0.8200 A=    0.0000 R=    0.0000 C=    0.0000
 XYZ=    9.5363   -8.4737   -0.0717 Q=    0.4100 A=    0.0000 R=    0.0000 C=    0.0000
 XYZ=    9.8858  -10.0238   -0.4477 Q=    0.4100 A=    0.0000 R=    0.0000 C=    0.0000
 XYZ=   -3.6435    1.5680   11.4308 Q=   -0.8200 A=    0.0000 R=    0.0000 C=    0.0000
 XYZ=   -3.9708    1.7239   12.3628 Q=    0.4100 A=    0.0000 R=    0.0000 C=    0.0000
 XYZ=   -3.8579    2.3640   10.8646 Q=    0.4100 A=    0.0000 R=    0.0000 C=    0.0000
 XYZ=   -4.4478    2.5155  -11.4601 Q=   -0.8200 A=    0.0000 R=    0.0000 C=    0.0000
 XYZ=   -5.1087    1.7679  -11.3936 Q=    0.4100 A=    0.0000 R=    0.0000 C=    0.0000
 XYZ=   -3.5205    2.1479  -11.3893 Q=    0.4100 A=    0.0000 R=    0.0000 C=    0.0000
 XYZ=   -4.6891    4.4385  -10.0138 Q=   -0.8200 A=    0.0000 R=    0.0000 C=    0.0000
 XYZ=   -5.1409    5.1122  -10.5987 Q=    0.4100 A=    0.0000 R=    0.0000 C=    0.0000
 XYZ=   -4.4668    3.6255  -10.5520 Q=    0.4100 A=    0.0000 R=    0.0000 C=    0.0000
 XYZ=   12.7244    1.1690   -1.2657 Q=   -0.8200 A=    0.0000 R=    0.0000 C=    0.0000
 XYZ=   12.9545    0.2525   -1.5932 Q=    0.4100 A=    0.0000 R=    0.0000 C=    0.0000
 XYZ=   12.3493    1.1079   -0.3407 Q=    0.4100 A=    0.0000 R=    0.0000 C=    0.0000
 XYZ=   -2.1799   -5.6471  -11.1666 Q=   -0.8200 A=    0.0000 R=    0.0000 C=    0.0000
 XYZ=   -2.3738   -5.6775  -12.1471 Q=    0.4100 A=    0.0000 R=    0.0000 C=    0.0000
 XYZ=   -1.4658   -4.9700  -10.9889 Q=    0.4100 A=    0.0000 R=    0.0000 C=    0.0000
 XYZ=   -1.5022   12.1504    0.3434 Q=   -0.8200 A=    0.0000 R=    0.0000 C=    0.0000
 XYZ=   -2.1229   11.3870    0.5218 Q=    0.4100 A=    0.0000 R=    0.0000 C=    0.0000
 XYZ=   -2.0340   12.9662    0.1160 Q=    0.4100 A=    0.0000 R=    0.0000 C=    0.0000
 XYZ=   -0.5881   -7.3619  -10.4229 Q=   -0.8200 A=    0.0000 R=    0.0000 C=    0.0000
 XYZ=   -1.3195   -6.7100  -10.6234 Q=    0.4100 A=    0.0000 R=    0.0000 C=    0.0000
 XYZ=   -0.3031   -7.2602   -9.4698 Q=    0.4100 A=    0.0000 R=    0.0000 C=    0.0000
 XYZ=   -9.5237   -4.7527    4.0034 Q=   -0.8200 A=    0.0000 R=    0.0000 C=    0.0000
 XYZ=   -9.1047   -5.5949    3.6640 Q=    0.4100 A=    0.0000 R=    0.0000 C=    0.0000
 XYZ=  -10.2328   -4.9789    4.6713 Q=    0.4100 A=    0.0000 R=    0.0000 C=    0.0000
 XYZ=   -4.7213   -9.3459   -0.6172 Q=   -0.8200 A=    0.0000 R=    0.0000 C=    0.0000
 XYZ=   -5.4369   -9.4759    0.0692 Q=    0.4100 A=    0.0000 R=    0.0000 C=    0.0000
 XYZ=   -4.8585   -9.9920   -1.3681 Q=    0.4100 A=    0.0000 R=    0.0000 C=    0.0000
 XYZ=   -4.0689   -5.4624   -9.7866 Q=   -0.8200 A=    0.0000 R=    0.0000 C=    0.0000
 XYZ=   -3.2616   -5.4902  -10.3761 Q=    0.4100 A=    0.0000 R=    0.0000 C=    0.0000
 XYZ=   -4.2496   -6.3773   -9.4256 Q=    0.4100 A=    0.0000 R=    0.0000 C=    0.0000
 XYZ=   -6.2717    6.1325    8.0794 Q=   -0.8200 A=    0.0000 R=    0.0000 C=    0.0000
 XYZ=   -7.2322    6.0861    8.3539 Q=    0.4100 A=    0.0000 R=    0.0000 C=    0.0000
 XYZ=   -5.7595    6.6711    8.7484 Q=    0.4100 A=    0.0000 R=    0.0000 C=    0.0000
[...]
    38  H    0.000000   0.000000   0.000000   0.000000   0.000000  -0.000001
    39  O   -0.001219   0.000062  -0.000023   0.000000   0.000007   0.000000
    40  H    0.000046  -0.000005  -0.000005   0.000000   0.000000   0.000000
    41  H    0.000216   0.000018  -0.000031   0.000000   0.000000   0.000000
    42  O    0.000000   0.000000   0.000001   0.000000   0.000000  -0.118468
    43  H    0.000000   0.000000   0.000000   0.000000   0.000000   0.002940
    44  H    0.000000   0.000000   0.000000   0.000000   0.000000   0.062457
    45  O    0.000551  -0.001392   0.000742  -0.000736   0.000022   0.000000
    46  H    0.000361  -0.001037   0.005956  -0.000493   0.003054   0.000000
    47  H    0.000004  -0.000012  -0.000433   0.000002   0.000032   0.000000
    48  O    0.000000   0.000000  -0.000043   0.000008   0.000001  -0.000007
    49  H    0.000000   0.000000   0.000000   0.000000   0.000000   0.000001
    50  H    0.000000   0.000000   0.000013  -0.000002   0.000000   0.000016
              31         32         33         34         35         36
     1  C   -0.004476  -0.000329   0.000086   0.000005  -0.000063   0.007370
     2  H    0.000008   0.000028   0.000002   0.000000   0.000000  -0.000004
     3  H    0.000042   0.000134   0.000000   0.000000   0.000000  -0.000045
     4  C    0.004859   0.003159   0.004465  -0.000013   0.000393  -0.002477
     5  H    0.000001  -0.000036  -0.000001   0.000000   0.000000   0.000206
     6  C   -0.000566  -0.003437  -0.003318  -0.000461  -0.000917  -0.005098
     7  H    0.000000  -0.000001   0.000123   0.000002  -0.000002  -0.000002
     8  O    0.000002   0.000047   0.002819  -0.000094   0.002327  -0.000009
     9  O    0.000000   0.000000  -0.090021   0.001994   0.002600  -0.000002
    10  H    0.000000   0.000000   0.001099  -0.000122  -0.000256   0.000001
    11  H    0.000000   0.000000   0.056518  -0.000337   0.000306   0.000000
    12  O   -0.000025   0.001471   0.000008   0.000000   0.000000  -0.001637
    13  H    0.000000  -0.000009   0.000000   0.000000   0.000000   0.000777
    14  H   -0.000001  -0.000047   0.000004   0.000000   0.000000  -0.000259
    15  O   -0.000737   0.046367   0.000000   0.000000   0.000000  -0.031201
    16  H    0.000016  -0.001776   0.000000   0.000000   0.000000   0.018576
    17  H   -0.000006  -0.000764   0.000000   0.000000   0.000000   0.000103
    18  O    0.000016   0.000115  -0.000127   0.000004   0.000016   0.000000
    19  H    0.000002   0.000002   0.000001   0.000000   0.000000   0.000000
    20  H    0.000000  -0.000006  -0.000013   0.000000  -0.000008   0.000000
    21  O    0.000000   0.000000   0.000175   0.000001   0.000000   0.000003
    22  H    0.000000   0.000000   0.000116   0.000000   0.000000  -0.000002
    23  H    0.000000   0.000000   0.000180   0.000000   0.000000   0.000000
    24  O    0.000000   0.000000  -0.013318   0.000284   0.005077   0.000000
    25  H    0.000000   0.000000   0.002315   0.000004   0.000096   0.000000
    26  H    0.000000   0.000000   0.000189   0.000000  -0.000029   0.000000
    27  O    0.000000   0.000000  -0.100678   0.002451   0.064246   0.000000
    28  H    0.000000   0.000000   0.002444  -0.000036  -0.001355   0.000000
    29  H    0.000000   0.000000   0.006147  -0.000071   0.000290   0.000000
    30  O    0.218799   0.167498   0.000000   0.000000   0.000000   0.000473
    31  H    0.180107  -0.004313   0.000000   0.000000   0.000000  -0.000021
    32  H   -0.004313   0.164149   0.000000   0.000000   0.000000   0.000501
    33  O    0.000000   0.000000   9.015551   0.201769   0.122196   0.000000
    34  H    0.000000   0.000000   0.201769   0.148102  -0.000243   0.000000
    35  H    0.000000   0.000000   0.122196  -0.000243   0.241364   0.000000
    36  O   -0.000021   0.000501   0.000000   0.000000   0.000000   8.745764
    37  H    0.000000  -0.000003   0.000000   0.000000   0.000000   0.216178
    38  H    0.000000  -0.000004   0.000000   0.000000   0.000000   0.216509
    39  O    0.000000   0.000000  -0.003068   0.000016  -0.000012   0.000000
    40  H    0.000000   0.000000   0.000214   0.000001  -0.000001   0.000000
    41  H    0.000000   0.000000   0.002456   0.000006   0.000013   0.000000
    42  O    0.004250   0.001112  -0.000002   0.000000   0.000000   0.000004
    43  H   -0.000209   0.000064   0.000000   0.000000   0.000000   0.000000
    44  H   -0.002712   0.000909   0.000000   0.000000   0.000000   0.000002
    45  O    0.000000   0.000000   0.000110  -0.000002   0.000036   0.000000
    46  H    0.000000   0.000000   0.000089   0.000000  -0.000005   0.000000
    47  H    0.000000   0.000000  -0.000006   0.000000   0.000001   0.000000
    48  O    0.000000   0.000000  -0.000001   0.000000   0.000000   0.000000
    49  H    0.000000   0.000000   0.000000   0.000000   0.000000   0.000000
    50  H    0.000000   0.000000   0.000000   0.000000   0.000000   0.000000
              37         38         39         40         41         42
     1  C   -0.000702   0.001371  -0.000134  -0.000012  -0.000261   0.006531
     2  H    0.000000   0.000000   0.000000   0.000000   0.000000   0.000358
     3  H    0.000000   0.000001   0.000000   0.000000   0.000000  -0.000122
     4  C   -0.001358   0.000973  -0.009100   0.000065   0.002185  -0.004938
     5  H    0.000012   0.000043   0.000001   0.000000  -0.000001   0.000010
     6  C    0.001566  -0.001974  -0.001376   0.000090  -0.000239  -0.001795
     7  H    0.000000  -0.000001  -0.000342   0.000007  -0.001275  -0.000004
     8  O    0.000000   0.000001  -0.001102  -0.000017   0.002069   0.000154
     9  O    0.000000   0.000000  -0.052623  -0.001305   0.053484   0.000000
    10  H    0.000000   0.000000   0.004115  -0.000009   0.001526   0.000001
    11  H    0.000000   0.000000   0.000556   0.000050   0.002057   0.000000
    12  O   -0.000435   0.000106   0.000003   0.000000  -0.000001   0.000015
    13  H    0.000073  -0.000029   0.000000   0.000000   0.000000   0.000000
    14  H    0.000013   0.000007  -0.000003   0.000000   0.000000   0.000004
    15  O   -0.000494  -0.000009   0.000001   0.000000   0.000000  -0.001642
    16  H   -0.002755   0.000223   0.000000   0.000000   0.000000  -0.000001
    17  H    0.000244   0.000049   0.000000   0.000000   0.000000   0.000107
    18  O    0.000000   0.000000   0.000000   0.000000   0.000000  -0.107452
    19  H    0.000000   0.000000   0.000000   0.000000   0.000000   0.028455
    20  H    0.000000   0.000000   0.000000   0.000000   0.000000   0.005136
    21  O    0.000000  -0.000001  -0.125553   0.002337   0.012335   0.000000
    22  H    0.000000   0.000000   0.001908  -0.000062  -0.000011   0.000000
    23  H    0.000000   0.000000   0.026359   0.001689  -0.002307   0.000000
    24  O    0.000000   0.000000   0.000208   0.000041  -0.001148   0.000000
    25  H    0.000000   0.000000  -0.001219   0.000046   0.000216   0.000000
    26  H    0.000000   0.000000   0.000062  -0.000005   0.000018   0.000000
    27  O    0.000000   0.000000  -0.000023  -0.000005  -0.000031   0.000001
    28  H    0.000000   0.000000   0.000000   0.000000   0.000000   0.000000
    29  H    0.000000   0.000000   0.000007   0.000000   0.000000   0.000000
    30  O   -0.000031  -0.000001   0.000000   0.000000   0.000000  -0.118468
    31  H    0.000000   0.000000   0.000000   0.000000   0.000000   0.004250
    32  H   -0.000003  -0.000004   0.000000   0.000000   0.000000   0.001112
    33  O    0.000000   0.000000  -0.003068   0.000214   0.002456  -0.000002
    34  H    0.000000   0.000000   0.000016   0.000001   0.000006   0.000000
    35  H    0.000000   0.000000  -0.000012  -0.000001   0.000013   0.000000
    36  O    0.216178   0.216509   0.000000   0.000000   0.000000   0.000004
    37  H    0.201520  -0.008291   0.000000   0.000000   0.000000   0.000000
    38  H   -0.008291   0.208593   0.000000   0.000000   0.000000   0.000000
    39  O    0.000000   0.000000   9.065091   0.199911   0.131207   0.000000
    40  H    0.000000   0.000000   0.199911   0.141250  -0.000880   0.000000
    41  H    0.000000   0.000000   0.131207  -0.000880   0.194608   0.000000
    42  O    0.000000   0.000000   0.000000   0.000000   0.000000   9.092655
    43  H    0.000000   0.000000   0.000000   0.000000   0.000000   0.190536
    44  H    0.000000   0.000000   0.000000   0.000000   0.000000   0.151604
    45  O    0.000000   0.000000   0.000001   0.000000   0.000000   0.000000
    46  H    0.000000   0.000000   0.000000   0.000000   0.000000   0.000000
    47  H    0.000000   0.000000   0.000000   0.000000   0.000000   0.000000
    48  O    0.000000   0.000000   0.000000   0.000000   0.000000  -0.003219
    49  H    0.000000   0.000000   0.000000   0.000000   0.000000   0.000311
    50  H    0.000000   0.000000   0.000000   0.000000   0.000000   0.000329
              43         44         45         46         47         48
     1  C   -0.000229   0.003058  -0.000029   0.000136  -0.000001  -0.000629
     2  H    0.000005   0.000028   0.000000   0.000000   0.000000  -0.000042
     3  H    0.000001  -0.000011   0.000000   0.000000   0.000000   0.000000
     4  C    0.000008  -0.001369   0.000258  -0.000022   0.000002   0.000404
     5  H    0.000000  -0.000003   0.000000   0.000000   0.000000   0.000000
     6  C    0.000073   0.000181  -0.000056   0.000191   0.000009  -0.000482
     7  H    0.000000   0.000000   0.000000   0.000000   0.000000   0.000000
     8  O    0.000002  -0.000039  -0.000104  -0.000059   0.000003   0.000032
     9  O    0.000000   0.000000  -0.000018  -0.000006   0.000000  -0.000001
    10  H    0.000000   0.000000   0.000000   0.000000   0.000000   0.000000
    11  H    0.000000   0.000000   0.000000   0.000000   0.000000   0.000000
    12  O    0.000001   0.000060   0.000000   0.000000   0.000000   0.000000
    13  H    0.000000   0.000000   0.000000   0.000000   0.000000   0.000000
    14  H    0.000000  -0.000002   0.000000   0.000000   0.000000   0.000000
    15  O    0.000025   0.000548   0.000000   0.000000   0.000000   0.000000
    16  H    0.000000  -0.000007   0.000000   0.000000   0.000000   0.000000
    17  H    0.000000  -0.000004   0.000000   0.000000   0.000000   0.000000
    18  O    0.003291  -0.001936  -0.000001  -0.000002   0.000000  -0.098663
    19  H    0.001355  -0.000017   0.000000   0.000000   0.000000   0.001856
    20  H   -0.000014   0.000011   0.000000   0.000000   0.000000   0.005656
    21  O    0.000000   0.000000   0.000000   0.000000   0.000000   0.000000
    22  H    0.000000   0.000000   0.000000   0.000000   0.000000   0.000000
    23  H    0.000000   0.000000   0.000000   0.000000   0.000000   0.000000
    24  O    0.000000   0.000000   0.010103   0.008540  -0.000375   0.000002
    25  H    0.000000   0.000000   0.000551   0.000361   0.000004   0.000000
    26  H    0.000000   0.000000  -0.001392  -0.001037  -0.000012   0.000000
    27  O    0.000000   0.000000   0.000742   0.005956  -0.000433  -0.000043
    28  H    0.000000   0.000000  -0.000736  -0.000493   0.000002   0.000008
    29  H    0.000000   0.000000   0.000022   0.003054   0.000032   0.000001
    30  O    0.002940   0.062457   0.000000   0.000000   0.000000  -0.000007
    31  H   -0.000209  -0.002712   0.000000   0.000000   0.000000   0.000000
    32  H    0.000064   0.000909   0.000000   0.000000   0.000000   0.000000
    33  O    0.000000   0.000000   0.000110   0.000089  -0.000006  -0.000001
    34  H    0.000000   0.000000  -0.000002   0.000000   0.000000   0.000000
    35  H    0.000000   0.000000   0.000036  -0.000005   0.000001   0.000000
    36  O    0.000000   0.000002   0.000000   0.000000   0.000000   0.000000
    37  H    0.000000   0.000000   0.000000   0.000000   0.000000   0.000000
    38  H    0.000000   0.000000   0.000000   0.000000   0.000000   0.000000
    39  O    0.000000   0.000000   0.000001   0.000000   0.000000   0.000000
    40  H    0.000000   0.000000   0.000000   0.000000   0.000000   0.000000
    41  H    0.000000   0.000000   0.000000   0.000000   0.000000   0.000000
    42  O    0.190536   0.151604   0.000000   0.000000   0.000000  -0.003219
    43  H    0.171480   0.000221   0.000000   0.000000   0.000000   0.000375
    44  H    0.000221   0.174667   0.000000   0.000000   0.000000  -0.000050
    45  O    0.000000   0.000000   8.718337   0.205147   0.209385   0.000002
    46  H    0.000000   0.000000   0.205147   0.255679  -0.005691   0.000000
    47  H    0.000000   0.000000   0.209385  -0.005691   0.163558   0.000000
    48  O    0.000375  -0.000050   0.000002   0.000000   0.000000   9.020883
    49  H   -0.000038   0.000001   0.000000   0.000000   0.000000   0.215491
    50  H   -0.000018  -0.000015   0.000000   0.000000   0.000000   0.148330
              49         50
     1  C   -0.000040  -0.000062
     2  H    0.000001   0.000005
     3  H    0.000000   0.000000
     4  C    0.000031   0.000031
     5  H    0.000000   0.000000
     6  C    0.000018   0.000054
     7  H    0.000000   0.000000
     8  O   -0.000001  -0.000001
     9  O    0.000000   0.000000
    10  H    0.000000   0.000000
    11  H    0.000000   0.000000
    12  O    0.000000   0.000000
    13  H    0.000000   0.000000
    14  H    0.000000   0.000000
    15  O    0.000000   0.000000
    16  H    0.000000   0.000000
    17  H    0.000000   0.000000
    18  O    0.001704   0.026935
    19  H   -0.000135   0.000186
    20  H   -0.000043   0.000826
    21  O    0.000000   0.000000
    22  H    0.000000   0.000000
    23  H    0.000000   0.000000
    24  O    0.000000  -0.000001
    25  H    0.000000   0.000000
    26  H    0.000000   0.000000
    27  O    0.000000   0.000013
    28  H    0.000000  -0.000002
    29  H    0.000000   0.000000
    30  O    0.000001   0.000016
    31  H    0.000000   0.000000
    32  H    0.000000   0.000000
    33  O    0.000000   0.000000
    34  H    0.000000   0.000000
    35  H    0.000000   0.000000
    36  O    0.000000   0.000000
    37  H    0.000000   0.000000
    38  H    0.000000   0.000000
    39  O    0.000000   0.000000
    40  H    0.000000   0.000000
    41  H    0.000000   0.000000
    42  O    0.000311   0.000329
    43  H   -0.000038  -0.000018
    44  H    0.000001  -0.000015
    45  O    0.000000   0.000000
    46  H    0.000000   0.000000
    47  H    0.000000   0.000000
    48  O    0.215491   0.148330
    49  H    0.164469  -0.002417
    50  H   -0.002417   0.197296
 Mulliken charges:
               1
     1  C   -0.428559
     2  H    0.270808
     3  H    0.252592
     4  C    0.002566
     5  H    0.234320
     6  C   -0.044284
     7  H    0.070736
     8  O   -0.349518
     9  O   -1.222231
    10  H    0.449491
    11  H    0.658859
    12  O   -1.062514
    13  H    0.625705
    14  H    0.500334
    15  O   -1.238796
    16  H    0.572786
    17  H    0.629991
    18  O   -1.115682
    19  H    0.615139
    20  H    0.502881
    21  O   -1.123252
    22  H    0.484256
    23  H    0.616313
    24  O   -1.169037
    25  H    0.580175
    26  H    0.661658
    27  O   -1.214379
    28  H    0.628173
    29  H    0.570364
    30  O   -1.205227
    31  H    0.604964
    32  H    0.625168
    33  O   -1.208525
    34  H    0.646740
    35  H    0.563929
    36  O   -1.165712
    37  H    0.594464
    38  H    0.582436
    39  O   -1.234892
    40  H    0.656596
    41  H    0.603976
    42  O   -1.243928
    43  H    0.630132
    44  H    0.612419
    45  O   -1.142356
    46  H    0.528160
    47  H    0.633524
    48  O   -1.289903
    49  H    0.620647
    50  H    0.628495
 Sum of Mulliken charges =   0.00000
 Mulliken charges with hydrogens summed into heavy atoms:
               1
     1  C    0.094841
     4  C    0.236885
     6  C    0.026452
     8  O   -0.349518
     9  O   -0.113881
    12  O    0.063525
    15  O   -0.036020
    18  O    0.002338
    21  O   -0.022684
    24  O    0.072795
    27  O   -0.015843
    30  O    0.024905
    33  O    0.002144
    36  O    0.011188
    39  O    0.025680
    42  O   -0.001376
    45  O    0.019328
    48  O   -0.040761
 Electronic spatial extent (au):  <R**2>=          11377.6796
 Charge=              0.0000 electrons
 Dipole moment (field-independent basis, Debye):
    X=              6.5819    Y=             -6.0963    Z=              2.4342  Tot=              9.2957
 Quadrupole moment (field-independent basis, Debye-Ang):
   XX=            -67.3457   YY=           -182.3448   ZZ=           -128.6310
   XY=             12.7350   XZ=              5.6938   YZ=              4.9795
 Traceless Quadrupole moment (field-independent basis, Debye-Ang):
   XX=             58.7614   YY=            -56.2376   ZZ=             -2.5238
   XY=             12.7350   XZ=              5.6938   YZ=              4.9795
 Octapole moment (field-independent basis, Debye-Ang**2):
  XXX=            -86.6548  YYY=             -1.4004  ZZZ=            -81.0903  XYY=            292.1823
  XXY=           -134.3914  XXZ=            -23.7897  XZZ=             26.5593  YZZ=            -44.3681
  YYZ=            104.2838  XYZ=             72.0955
 Hexadecapole moment (field-independent basis, Debye-Ang**3):
 XXXX=          -5323.4991 YYYY=          -7706.3808 ZZZZ=          -1226.9372 XXXY=             76.8892
 XXXZ=           -341.4527 YYYX=            737.1135 YYYZ=            420.5725 ZZZX=            372.8190
 ZZZY=            -98.9081 XXYY=          -1099.6947 XXZZ=          -1570.5131 YYZZ=          -1229.7409
 XXYZ=           -130.9979 YYXZ=             -0.5951 ZZXY=            105.7843
 N-N= 1.146881340055D+03 E-N=-6.258472067608D+03  KE= 1.249232653416D+03
 Leave Link  601 at Fri Sep 14 19:52:38 2018, MaxMem=    33554432 cpu:        19.5
 (Enter /usr/local/pacerepov1/gaussian/G09D01LINDA/g09/l9999.exe)

 Test job not archived.
 1\1\GINC-IW-H31-26\SP\RLC-wPBE TD-FC\6-31+G(d)\C3H32O15\ROOT\14-Sep-20
 18\0\\#p td=(nstates=15)/6-31+g(d) lc-wpbe charge\\Acroleina in Water\
 \0,1\C,0,0.485154,0.480443,-1.430142\H,0,1.461403,0.187773,-1.055732\H
 ,0,0.429244,0.878853,-2.437062\C,0,-0.605127,0.346563,-0.658432\H,0,-1
 .591686,0.632893,-1.012412\C,0,-0.508516,-0.199107,0.712798\H,0,-1.458
 487,-0.272107,1.272438\O,0,0.544883,-0.561317,1.236519\O,0,-0.8072,-1.
 079066,3.252462\H,0,-0.76512,-0.449716,2.476482\H,0,0.0473,-1.028276,3
 .769472\O,0,-2.04043,3.152484,0.750662\H,0,-3.02743,3.252975,0.876402\
 H,0,-1.72944,2.318944,1.207312\O,0,-1.43529,3.536984,-1.469318\H,0,-2.
 03301,3.028095,-2.088828\H,0,-1.77167,3.445904,-0.531998\O,0,3.82215,1
 .322674,0.514402\H,0,3.57264,2.204255,0.113602\H,0,3.06339,0.982454,1.
 069892\O,0,-3.72467,-1.099696,2.537152\H,0,-2.99029,-0.948996,1.875322
 \H,0,-3.37294,-1.626296,3.311132\O,0,1.10392,-3.547675,2.089782\H,0,0.
 34728,-2.958905,2.374192\H,0,0.88449,-4.499396,2.304382\O,0,2.88995,-2
 .609345,3.426922\H,0,3.79041,-2.491735,3.008112\H,0,2.24063,-2.929085,
 2.736852\O,0,1.006,3.543585,-1.607838\H,0,1.1814,4.131014,-2.397878\H,
 0,0.02204,3.504225,-1.433708\O,0,1.22634,-1.249306,4.608622\H,0,1.7637
 ,-0.724526,5.268842\H,0,1.83856,-1.665366,3.936242\O,0,-3.81571,2.7558
 05,-2.318398\H,0,-4.0965,3.542315,-1.768328\H,0,-4.41729,1.981054,-2.1
 23638\O,0,-2.66837,-2.297395,4.150172\H,0,-2.31655,-3.108145,4.618082\
 H,0,-1.90837,-1.793276,3.739942\O,0,3.17035,3.172425,-0.777368\H,0,3.7
 3618,3.754395,-1.361448\H,0,2.24592,3.119395,-1.155138\O,0,3.55116,-5.
 192486,1.041262\H,0,2.95165,-4.413596,1.225652\H,0,3.76551,-5.658576,1
 .899642\O,0,6.08797,0.954484,0.026922\H,0,6.10196,1.121834,-0.958888\H
 ,0,5.14361,0.976044,0.355242\\Version=EM64L-G09RevD.01\State=1-A\HF=-1
 758.9797085\RMSD=9.477e-09\PG=C01 [X(C3H32O15)]\\@


 IF MATHEMATICALLY YOU END UP WITH THE INCORRECT ANSWER,
 TRY MULTIPLYING BY THE PAGE NUMBER.
 Job cpu time:       0 days  9 hours 33 minutes 58.0 seconds.
 File lengths (MBytes):  RWF=    792 Int=      0 D2E=      0 Chk=     96 Scr=      2
 Normal termination of Gaussian 09 at Fri Sep 14 19:52:58 2018.
