 Entering Gaussian System, Link 0=g09
 Input=Acroleina_water_15_100c.gjf
 Output=Acroleina_water_15_100c.log
 Initial command:
 /usr/local/pacerepov1/gaussian/G09D01LINDA/g09/l1.exe /nv/hp18/holiveira7/scratch/22411804/Gau-28703.inp -scrdir=/nv/hp18/holiveira7/scratch/22411804/
 Entering Link 1 = /usr/local/pacerepov1/gaussian/G09D01LINDA/g09/l1.exe PID=     28705.
  
 Copyright (c) 1988,1990,1992,1993,1995,1998,2003,2009,2013,
            Gaussian, Inc.  All Rights Reserved.
  
 This is part of the Gaussian(R) 09 program.  It is based on
 the Gaussian(R) 03 system (copyright 2003, Gaussian, Inc.),
 the Gaussian(R) 98 system (copyright 1998, Gaussian, Inc.),
 the Gaussian(R) 94 system (copyright 1995, Gaussian, Inc.),
 the Gaussian 92(TM) system (copyright 1992, Gaussian, Inc.),
 the Gaussian 90(TM) system (copyright 1990, Gaussian, Inc.),
 the Gaussian 88(TM) system (copyright 1988, Gaussian, Inc.),
 the Gaussian 86(TM) system (copyright 1986, Carnegie Mellon
 University), and the Gaussian 82(TM) system (copyright 1983,
 Carnegie Mellon University). Gaussian is a federally registered
 trademark of Gaussian, Inc.
  
 This software contains proprietary and confidential information,
 including trade secrets, belonging to Gaussian, Inc.
  
 This software is provided under written license and may be
 used, copied, transmitted, or stored only in accord with that
 written license.
  
 The following legend is applicable only to US Government
 contracts under FAR:
  
                    RESTRICTED RIGHTS LEGEND
  
 Use, reproduction and disclosure by the US Government is
 subject to restrictions as set forth in subparagraphs (a)
 and (c) of the Commercial Computer Software - Restricted
 Rights clause in FAR 52.227-19.
  
 Gaussian, Inc.
 340 Quinnipiac St., Bldg. 40, Wallingford CT 06492
  
  
 ---------------------------------------------------------------
 Warning -- This program may not be used in any manner that
 competes with the business of Gaussian, Inc. or will provide
 assistance to any competitor of Gaussian, Inc.  The licensee
 of this program is prohibited from giving any competitor of
 Gaussian, Inc. access to this program.  By using this program,
 the user acknowledges that Gaussian, Inc. is engaged in the
 business of creating and licensing software in the field of
 computational chemistry and represents and warrants to the
 licensee that it is not a competitor of Gaussian, Inc. and that
 it will not use this program in any manner prohibited above.
 ---------------------------------------------------------------
  

 Cite this work as:
 Gaussian 09, Revision D.01,
 M. J. Frisch, G. W. Trucks, H. B. Schlegel, G. E. Scuseria, 
 M. A. Robb, J. R. Cheeseman, G. Scalmani, V. Barone, B. Mennucci, 
 G. A. Petersson, H. Nakatsuji, M. Caricato, X. Li, H. P. Hratchian, 
 A. F. Izmaylov, J. Bloino, G. Zheng, J. L. Sonnenberg, M. Hada, 
 M. Ehara, K. Toyota, R. Fukuda, J. Hasegawa, M. Ishida, T. Nakajima, 
 Y. Honda, O. Kitao, H. Nakai, T. Vreven, J. A. Montgomery, Jr., 
 J. E. Peralta, F. Ogliaro, M. Bearpark, J. J. Heyd, E. Brothers, 
 K. N. Kudin, V. N. Staroverov, T. Keith, R. Kobayashi, J. Normand, 
 K. Raghavachari, A. Rendell, J. C. Burant, S. S. Iyengar, J. Tomasi, 
 M. Cossi, N. Rega, J. M. Millam, M. Klene, J. E. Knox, J. B. Cross, 
 V. Bakken, C. Adamo, J. Jaramillo, R. Gomperts, R. E. Stratmann, 
 O. Yazyev, A. J. Austin, R. Cammi, C. Pomelli, J. W. Ochterski, 
 R. L. Martin, K. Morokuma, V. G. Zakrzewski, G. A. Voth, 
 P. Salvador, J. J. Dannenberg, S. Dapprich, A. D. Daniels, 
 O. Farkas, J. B. Foresman, J. V. Ortiz, J. Cioslowski, 
 and D. J. Fox, Gaussian, Inc., Wallingford CT, 2013.
 
 ******************************************
 Gaussian 09:  EM64L-G09RevD.01 24-Apr-2013
                14-Sep-2018 
 ******************************************
 %chk=Acrolina_Din_100.chk
 %nprocshared=10
 Will use up to   10 processors via shared memory.
 -------------------------------------------
 #p td=(nstates=15)/6-31+g(d) lc-wpbe charge
 -------------------------------------------
 1/18=10,28=-2,38=1,125=101/1;
 2/12=2,17=6,18=5,40=1/2;
 3/5=1,6=6,7=11,11=9,16=1,25=1,30=1,74=-41/1,2,8,3;
 4//1;
 5/5=2,38=5/2;
 8/6=1,10=2,108=15/1;
 9/41=15,42=1,70=2/14;
 6/7=2,8=2,9=2,10=2/1;
 99/5=1,9=1/99;
 Leave Link    1 at Fri Sep 14 16:24:41 2018, MaxMem=           0 cpu:         3.9
 (Enter /usr/local/pacerepov1/gaussian/G09D01LINDA/g09/l101.exe)
 ------------------
 Acroleina in Water
 ------------------
 Symbolic Z-matrix:
 Charge =  0 Multiplicity = 1
 C                     0.48515   0.48044  -1.43014 
 H                     1.4614    0.18777  -1.05573 
 H                     0.42924   0.87885  -2.43706 
 C                    -0.60513   0.34656  -0.65843 
 H                    -1.59169   0.63289  -1.01241 
 C                    -0.50852  -0.19911   0.7128 
 H                    -1.45849  -0.27211   1.27244 
 O                     0.54488  -0.56132   1.23652 
 O                     1.09655  -2.84763   1.16617 
 H                     0.53181  -2.28733   0.56021 
 H                     0.61333  -3.6961    1.38196 
 O                     1.10837  -0.74941   4.05707 
 H                     1.49617  -0.02896   4.63204 
 H                     1.80349  -1.07441   3.41583 
 O                     2.56666  -1.9663    2.72838 
 H                     3.39301  -1.64644   2.26481 
 H                     1.9271   -2.33426   2.05341 
 O                    -1.10823   0.24026   4.47168 
 H                    -1.31541   0.34842   5.44398 
 H                    -0.13332   0.04878   4.35796 
 O                     3.5781    2.34208  -1.40044 
 H                     3.55578   3.32362  -1.59053 
 H                     2.65      1.97258  -1.44632 
 O                     0.97847   4.72305  -2.50223 
 H                     1.08729   5.4505   -3.17971 
 H                     0.00638   4.5912   -2.30802 
 O                    -0.35003  -2.37557   4.90393 
 H                     0.14581  -1.59794   4.51727 
 H                    -1.08597  -2.64401   4.28226 
 O                     2.28389   1.00083   4.94628 
 H                     2.86549   0.30738   5.3716 
 H                     2.85547   1.72996   4.56984 
 O                    -2.91231  -0.64477   3.04516 
 H                    -2.68074  -1.59641   2.84319 
 H                    -2.19008  -0.23745   3.60417 
 O                     2.69648  -4.93229   0.07086 
 H                     2.05826  -4.25821   0.44286 
 H                     2.905    -5.61548   0.77071 
 O                    -1.91863   5.0218   -2.4103 
 H                    -2.65217   4.4572   -2.78869 
 H                    -2.12321   5.23805  -1.45563 
 O                     3.22855  -2.80813   4.78142 
 H                     2.96308  -2.53267   3.85745 
 H                     3.38269  -1.99356   5.34068 
 O                    -0.01706  -4.8895    1.74111 
 H                    -0.49347  -5.58678   1.20551 
 H                     0.73006  -5.31457   2.2521 
 O                     4.7736   -1.03715   1.92482 
 H                     4.83299  -0.10152   2.27283 
 H                     5.457    -1.1697    1.20688 
 
 NAtoms=     50 NQM=       50 NQMF=       0 NMMI=      0 NMMIF=      0
                NMic=       0 NMicF=      0.
                    Isotopes and Nuclear Properties:
 (Nuclear quadrupole moments (NQMom) in fm**2, nuclear magnetic moments (NMagM)
  in nuclear magnetons)

  Atom         1           2           3           4           5           6           7           8           9          10
 IAtWgt=          12           1           1          12           1          12           1          16          16           1
 AtmWgt=  12.0000000   1.0078250   1.0078250  12.0000000   1.0078250  12.0000000   1.0078250  15.9949146  15.9949146   1.0078250
 NucSpn=           0           1           1           0           1           0           1           0           0           1
 AtZEff=   0.0000000   0.0000000   0.0000000   0.0000000   0.0000000   0.0000000   0.0000000   0.0000000   0.0000000   0.0000000
 NQMom=    0.0000000   0.0000000   0.0000000   0.0000000   0.0000000   0.0000000   0.0000000   0.0000000   0.0000000   0.0000000
 NMagM=    0.0000000   2.7928460   2.7928460   0.0000000   2.7928460   0.0000000   2.7928460   0.0000000   0.0000000   2.7928460
 AtZNuc=   6.0000000   1.0000000   1.0000000   6.0000000   1.0000000   6.0000000   1.0000000   8.0000000   8.0000000   1.0000000

  Atom        11          12          13          14          15          16          17          18          19          20
 IAtWgt=           1          16           1           1          16           1           1          16           1           1
 AtmWgt=   1.0078250  15.9949146   1.0078250   1.0078250  15.9949146   1.0078250   1.0078250  15.9949146   1.0078250   1.0078250
 NucSpn=           1           0           1           1           0           1           1           0           1           1
 AtZEff=   0.0000000   0.0000000   0.0000000   0.0000000   0.0000000   0.0000000   0.0000000   0.0000000   0.0000000   0.0000000
 NQMom=    0.0000000   0.0000000   0.0000000   0.0000000   0.0000000   0.0000000   0.0000000   0.0000000   0.0000000   0.0000000
 NMagM=    2.7928460   0.0000000   2.7928460   2.7928460   0.0000000   2.7928460   2.7928460   0.0000000   2.7928460   2.7928460
 AtZNuc=   1.0000000   8.0000000   1.0000000   1.0000000   8.0000000   1.0000000   1.0000000   8.0000000   1.0000000   1.0000000

  Atom        21          22          23          24          25          26          27          28          29          30
 IAtWgt=          16           1           1          16           1           1          16           1           1          16
 AtmWgt=  15.9949146   1.0078250   1.0078250  15.9949146   1.0078250   1.0078250  15.9949146   1.0078250   1.0078250  15.9949146
 NucSpn=           0           1           1           0           1           1           0           1           1           0
 AtZEff=   0.0000000   0.0000000   0.0000000   0.0000000   0.0000000   0.0000000   0.0000000   0.0000000   0.0000000   0.0000000
 NQMom=    0.0000000   0.0000000   0.0000000   0.0000000   0.0000000   0.0000000   0.0000000   0.0000000   0.0000000   0.0000000
 NMagM=    0.0000000   2.7928460   2.7928460   0.0000000   2.7928460   2.7928460   0.0000000   2.7928460   2.7928460   0.0000000
 AtZNuc=   8.0000000   1.0000000   1.0000000   8.0000000   1.0000000   1.0000000   8.0000000   1.0000000   1.0000000   8.0000000

  Atom        31          32          33          34          35          36          37          38          39          40
 IAtWgt=           1           1          16           1           1          16           1           1          16           1
 AtmWgt=   1.0078250   1.0078250  15.9949146   1.0078250   1.0078250  15.9949146   1.0078250   1.0078250  15.9949146   1.0078250
 NucSpn=           1           1           0           1           1           0           1           1           0           1
 AtZEff=   0.0000000   0.0000000   0.0000000   0.0000000   0.0000000   0.0000000   0.0000000   0.0000000   0.0000000   0.0000000
 NQMom=    0.0000000   0.0000000   0.0000000   0.0000000   0.0000000   0.0000000   0.0000000   0.0000000   0.0000000   0.0000000
 NMagM=    2.7928460   2.7928460   0.0000000   2.7928460   2.7928460   0.0000000   2.7928460   2.7928460   0.0000000   2.7928460
 AtZNuc=   1.0000000   1.0000000   8.0000000   1.0000000   1.0000000   8.0000000   1.0000000   1.0000000   8.0000000   1.0000000

  Atom        41          42          43          44          45          46          47          48          49          50
 IAtWgt=           1          16           1           1          16           1           1          16           1           1
 AtmWgt=   1.0078250  15.9949146   1.0078250   1.0078250  15.9949146   1.0078250   1.0078250  15.9949146   1.0078250   1.0078250
 NucSpn=           1           0           1           1           0           1           1           0           1           1
 AtZEff=   0.0000000   0.0000000   0.0000000   0.0000000   0.0000000   0.0000000   0.0000000   0.0000000   0.0000000   0.0000000
 NQMom=    0.0000000   0.0000000   0.0000000   0.0000000   0.0000000   0.0000000   0.0000000   0.0000000   0.0000000   0.0000000
 NMagM=    2.7928460   0.0000000   2.7928460   2.7928460   0.0000000   2.7928460   2.7928460   0.0000000   2.7928460   2.7928460
 AtZNuc=   1.0000000   8.0000000   1.0000000   1.0000000   8.0000000   1.0000000   1.0000000   8.0000000   1.0000000   1.0000000
 Background charge distribution read from input stream:
 Point Charges:
 XYZ=    3.3468    4.6190   -1.7034 Q=   -0.8200 A=    0.0000 R=    0.0000 C=    0.0000
 XYZ=    3.9094    5.2332   -2.2567 Q=    0.4100 A=    0.0000 R=    0.0000 C=    0.0000
 XYZ=    2.4380    4.5398   -2.1131 Q=    0.4100 A=    0.0000 R=    0.0000 C=    0.0000
 XYZ=    2.3244    6.2083    2.3149 Q=   -0.8200 A=    0.0000 R=    0.0000 C=    0.0000
 XYZ=    1.7780    6.9218    1.8764 Q=    0.4100 A=    0.0000 R=    0.0000 C=    0.0000
 XYZ=    2.6773    5.5834    1.6185 Q=    0.4100 A=    0.0000 R=    0.0000 C=    0.0000
 XYZ=    3.9802    2.7019    4.3990 Q=   -0.8200 A=    0.0000 R=    0.0000 C=    0.0000
 XYZ=    4.6290    2.6200    5.1556 Q=    0.4100 A=    0.0000 R=    0.0000 C=    0.0000
 XYZ=    4.0175    3.6294    4.0269 Q=    0.4100 A=    0.0000 R=    0.0000 C=    0.0000
 XYZ=    5.3992    1.1686    3.1261 Q=   -0.8200 A=    0.0000 R=    0.0000 C=    0.0000
 XYZ=    5.6940    0.6342    3.9183 Q=    0.4100 A=    0.0000 R=    0.0000 C=    0.0000
 XYZ=    4.7602    1.8785    3.4220 Q=    0.4100 A=    0.0000 R=    0.0000 C=    0.0000
 XYZ=   -4.5719   -1.2928    1.0408 Q=   -0.8200 A=    0.0000 R=    0.0000 C=    0.0000
 XYZ=   -3.9381   -0.8485    1.6741 Q=    0.4100 A=    0.0000 R=    0.0000 C=    0.0000
 XYZ=   -4.6580   -2.2601    1.2793 Q=    0.4100 A=    0.0000 R=    0.0000 C=    0.0000
 XYZ=   -2.7807    5.6760   -0.3415 Q=   -0.8200 A=    0.0000 R=    0.0000 C=    0.0000
 XYZ=   -3.2979    4.9048    0.0298 Q=    0.4100 A=    0.0000 R=    0.0000 C=    0.0000
 XYZ=   -3.3795    6.4734   -0.4170 Q=    0.4100 A=    0.0000 R=    0.0000 C=    0.0000
 XYZ=   -4.3602    1.7658    2.1535 Q=   -0.8200 A=    0.0000 R=    0.0000 C=    0.0000
 XYZ=   -3.9699    2.4820    1.5749 Q=    0.4100 A=    0.0000 R=    0.0000 C=    0.0000
 XYZ=   -3.6238    1.2052    2.5324 Q=    0.4100 A=    0.0000 R=    0.0000 C=    0.0000
 XYZ=    1.6094    2.6540    6.5273 Q=   -0.8200 A=    0.0000 R=    0.0000 C=    0.0000
 XYZ=    1.7262    1.8053    6.0113 Q=    0.4100 A=    0.0000 R=    0.0000 C=    0.0000
 XYZ=    0.7076    2.6600    6.9593 Q=    0.4100 A=    0.0000 R=    0.0000 C=    0.0000
 XYZ=   -2.2297   -2.8144    3.6790 Q=   -0.8200 A=    0.0000 R=    0.0000 C=    0.0000
 XYZ=   -2.6008   -2.6828    4.5982 Q=    0.4100 A=    0.0000 R=    0.0000 C=    0.0000
 XYZ=   -2.3138   -3.7767    3.4203 Q=    0.4100 A=    0.0000 R=    0.0000 C=    0.0000
 XYZ=   -1.9772   -5.2673    3.3112 Q=   -0.8200 A=    0.0000 R=    0.0000 C=    0.0000
 XYZ=   -1.1907   -4.9110    2.8067 Q=    0.4100 A=    0.0000 R=    0.0000 C=    0.0000
 XYZ=   -1.6606   -5.7247    4.1423 Q=    0.4100 A=    0.0000 R=    0.0000 C=    0.0000
 XYZ=   -1.1381    7.2292   -0.0840 Q=   -0.8200 A=    0.0000 R=    0.0000 C=    0.0000
 XYZ=   -1.4503    7.9058    0.5830 Q=    0.4100 A=    0.0000 R=    0.0000 C=    0.0000
 XYZ=   -1.7177    6.4161   -0.0302 Q=    0.4100 A=    0.0000 R=    0.0000 C=    0.0000
 XYZ=   -2.9807    1.5553   -6.6435 Q=   -0.8200 A=    0.0000 R=    0.0000 C=    0.0000
 XYZ=   -2.3273    0.8939   -6.2751 Q=    0.4100 A=    0.0000 R=    0.0000 C=    0.0000
 XYZ=   -2.5341    2.4445   -6.7437 Q=    0.4100 A=    0.0000 R=    0.0000 C=    0.0000
 XYZ=   -4.5397    4.0558    0.1860 Q=   -0.8200 A=    0.0000 R=    0.0000 C=    0.0000
 XYZ=   -4.8615    4.5617   -0.6144 Q=    0.4100 A=    0.0000 R=    0.0000 C=    0.0000
 XYZ=   -4.9417    4.4494    1.0127 Q=    0.4100 A=    0.0000 R=    0.0000 C=    0.0000
 XYZ=    3.9618    5.7668    0.1730 Q=   -0.8200 A=    0.0000 R=    0.0000 C=    0.0000
 XYZ=    3.7607    5.1277   -0.5694 Q=    0.4100 A=    0.0000 R=    0.0000 C=    0.0000
 XYZ=    3.7639    6.6998   -0.1276 Q=    0.4100 A=    0.0000 R=    0.0000 C=    0.0000
 XYZ=   -4.0144    3.8271   -3.0058 Q=   -0.8200 A=    0.0000 R=    0.0000 C=    0.0000
 XYZ=   -4.4812    4.5373   -2.4788 Q=    0.4100 A=    0.0000 R=    0.0000 C=    0.0000
 XYZ=   -4.5443    2.9799   -2.9659 Q=    0.4100 A=    0.0000 R=    0.0000 C=    0.0000
 XYZ=    5.8763    2.5101   -1.2939 Q=   -0.8200 A=    0.0000 R=    0.0000 C=    0.0000
 XYZ=    6.1195    2.4848   -2.2635 Q=    0.4100 A=    0.0000 R=    0.0000 C=    0.0000
 XYZ=    4.8853    2.4181   -1.1964 Q=    0.4100 A=    0.0000 R=    0.0000 C=    0.0000
 XYZ=    1.3599   -4.2654    4.9062 Q=   -0.8200 A=    0.0000 R=    0.0000 C=    0.0000
 XYZ=    2.1713   -3.6832    4.8544 Q=    0.4100 A=    0.0000 R=    0.0000 C=    0.0000
 XYZ=    0.5388   -3.6947    4.8927 Q=    0.4100 A=    0.0000 R=    0.0000 C=    0.0000
 XYZ=    5.6659   -2.4739    3.6700 Q=   -0.8200 A=    0.0000 R=    0.0000 C=    0.0000
 XYZ=    5.2245   -1.9472    2.9435 Q=    0.4100 A=    0.0000 R=    0.0000 C=    0.0000
 XYZ=    4.9682   -2.8520    4.2785 Q=    0.4100 A=    0.0000 R=    0.0000 C=    0.0000
 XYZ=    1.0718    5.2490    6.1579 Q=   -0.8200 A=    0.0000 R=    0.0000 C=    0.0000
 XYZ=    1.5355    5.5420    6.9940 Q=    0.4100 A=    0.0000 R=    0.0000 C=    0.0000
 XYZ=    1.2165    4.2688    6.0225 Q=    0.4100 A=    0.0000 R=    0.0000 C=    0.0000
 XYZ=   -1.1263    6.8485   -3.6120 Q=   -0.8200 A=    0.0000 R=    0.0000 C=    0.0000
 XYZ=   -1.5153    6.0682   -3.1222 Q=    0.4100 A=    0.0000 R=    0.0000 C=    0.0000
 XYZ=   -1.0288    7.6209   -2.9845 Q=    0.4100 A=    0.0000 R=    0.0000 C=    0.0000
 XYZ=   -1.0986   -6.3452    0.4867 Q=   -0.8200 A=    0.0000 R=    0.0000 C=    0.0000
 XYZ=   -0.2849   -6.6471   -0.0101 Q=    0.4100 A=    0.0000 R=    0.0000 C=    0.0000
 XYZ=   -1.8765   -6.3057   -0.1405 Q=    0.4100 A=    0.0000 R=    0.0000 C=    0.0000
 XYZ=   -1.2647   -1.5688    6.9469 Q=   -0.8200 A=    0.0000 R=    0.0000 C=    0.0000
 XYZ=   -0.7466   -1.7532    6.1116 Q=    0.4100 A=    0.0000 R=    0.0000 C=    0.0000
 XYZ=   -0.7580   -1.9149    7.7365 Q=    0.4100 A=    0.0000 R=    0.0000 C=    0.0000
 XYZ=   -6.2685   -1.4629   -0.6456 Q=   -0.8200 A=    0.0000 R=    0.0000 C=    0.0000
 XYZ=   -5.5253   -1.3422    0.0124 Q=    0.4100 A=    0.0000 R=    0.0000 C=    0.0000
 XYZ=   -6.3586   -2.4327   -0.8725 Q=    0.4100 A=    0.0000 R=    0.0000 C=    0.0000
 XYZ=    4.7405   -4.4558   -0.9994 Q=   -0.8200 A=    0.0000 R=    0.0000 C=    0.0000
 XYZ=    3.8121   -4.5968   -0.6557 Q=    0.4100 A=    0.0000 R=    0.0000 C=    0.0000
 XYZ=    4.9360   -5.1255   -1.7158 Q=    0.4100 A=    0.0000 R=    0.0000 C=    0.0000
 XYZ=    2.6741   -6.2672   -1.7691 Q=   -0.8200 A=    0.0000 R=    0.0000 C=    0.0000
 XYZ=    2.6821   -5.6249   -1.0027 Q=    0.4100 A=    0.0000 R=    0.0000 C=    0.0000
 XYZ=    3.5589   -6.2419   -2.2344 Q=    0.4100 A=    0.0000 R=    0.0000 C=    0.0000
 XYZ=    3.9190   -0.6370    5.7253 Q=   -0.8200 A=    0.0000 R=    0.0000 C=    0.0000
 XYZ=    4.0619   -0.4997    6.7054 Q=    0.4100 A=    0.0000 R=    0.0000 C=    0.0000
 XYZ=    4.7887   -0.5299    5.2434 Q=    0.4100 A=    0.0000 R=    0.0000 C=    0.0000
 XYZ=    1.8444    6.9574    4.5992 Q=   -0.8200 A=    0.0000 R=    0.0000 C=    0.0000
 XYZ=    1.9108    6.5405    3.6926 Q=    0.4100 A=    0.0000 R=    0.0000 C=    0.0000
 XYZ=    1.5587    6.2667    5.2635 Q=    0.4100 A=    0.0000 R=    0.0000 C=    0.0000
 XYZ=    5.4269    5.3398    1.8231 Q=   -0.8200 A=    0.0000 R=    0.0000 C=    0.0000
 XYZ=    5.0275    4.9936    2.6720 Q=    0.4100 A=    0.0000 R=    0.0000 C=    0.0000
 XYZ=    4.7044    5.4719    1.1444 Q=    0.4100 A=    0.0000 R=    0.0000 C=    0.0000
 XYZ=    4.3917    5.1123    3.9473 Q=   -0.8200 A=    0.0000 R=    0.0000 C=    0.0000
 XYZ=    5.2293    5.3296    4.4487 Q=    0.4100 A=    0.0000 R=    0.0000 C=    0.0000
 XYZ=    3.7846    5.9069    3.9523 Q=    0.4100 A=    0.0000 R=    0.0000 C=    0.0000
 XYZ=   -3.5620   -5.4042    1.5160 Q=   -0.8200 A=    0.0000 R=    0.0000 C=    0.0000
 XYZ=   -2.8433   -5.3153    2.2057 Q=    0.4100 A=    0.0000 R=    0.0000 C=    0.0000
 XYZ=   -3.1796   -5.8117    0.6868 Q=    0.4100 A=    0.0000 R=    0.0000 C=    0.0000
 XYZ=   -4.6316   -1.3872    4.4070 Q=   -0.8200 A=    0.0000 R=    0.0000 C=    0.0000
 XYZ=   -3.9779   -0.9091    3.8204 Q=    0.4100 A=    0.0000 R=    0.0000 C=    0.0000
 XYZ=   -4.1361   -1.9418    5.0755 Q=    0.4100 A=    0.0000 R=    0.0000 C=    0.0000
 XYZ=   -2.9214   -6.1409   -0.7249 Q=   -0.8200 A=    0.0000 R=    0.0000 C=    0.0000
 XYZ=   -3.0685   -7.1242   -0.6177 Q=    0.4100 A=    0.0000 R=    0.0000 C=    0.0000
 XYZ=   -3.6808   -5.7446   -1.2411 Q=    0.4100 A=    0.0000 R=    0.0000 C=    0.0000
 XYZ=   -5.0473   -3.6404    1.4424 Q=   -0.8200 A=    0.0000 R=    0.0000 C=    0.0000
 XYZ=   -5.8265   -3.7416    2.0609 Q=    0.4100 A=    0.0000 R=    0.0000 C=    0.0000
 XYZ=   -4.4451   -4.4337    1.5323 Q=    0.4100 A=    0.0000 R=    0.0000 C=    0.0000
 XYZ=    1.6174   -5.8331    2.9843 Q=   -0.8200 A=    0.0000 R=    0.0000 C=    0.0000
 XYZ=    1.0723   -6.6218    3.2689 Q=    0.4100 A=    0.0000 R=    0.0000 C=    0.0000
 XYZ=    1.5387   -5.1089    3.6695 Q=    0.4100 A=    0.0000 R=    0.0000 C=    0.0000
 XYZ=    1.4231    7.8382    0.6512 Q=   -0.8200 A=    0.0000 R=    0.0000 C=    0.0000
 XYZ=    1.1216    8.6276    1.1860 Q=    0.4100 A=    0.0000 R=    0.0000 C=    0.0000
 XYZ=    0.6261    7.3082    0.3611 Q=    0.4100 A=    0.0000 R=    0.0000 C=    0.0000
 XYZ=    0.5455   -7.0423   -1.1709 Q=   -0.8200 A=    0.0000 R=    0.0000 C=    0.0000
 XYZ=    1.5448   -7.0451   -1.2078 Q=    0.4100 A=    0.0000 R=    0.0000 C=    0.0000
 XYZ=    0.1801   -6.7535   -2.0558 Q=    0.4100 A=    0.0000 R=    0.0000 C=    0.0000
 XYZ=   -6.9058   -0.2001   -2.5705 Q=   -0.8200 A=    0.0000 R=    0.0000 C=    0.0000
 XYZ=   -6.7233   -0.7355   -3.3952 Q=    0.4100 A=    0.0000 R=    0.0000 C=    0.0000
 XYZ=   -6.5393   -0.6803   -1.7735 Q=    0.4100 A=    0.0000 R=    0.0000 C=    0.0000
 XYZ=    1.0518    6.1170   -4.2655 Q=   -0.8200 A=    0.0000 R=    0.0000 C=    0.0000
 XYZ=    0.1148    6.4518   -4.1651 Q=    0.4100 A=    0.0000 R=    0.0000 C=    0.0000
 XYZ=    1.2018    5.8246   -5.2100 Q=    0.4100 A=    0.0000 R=    0.0000 C=    0.0000
 XYZ=    6.2409   -1.6610    0.2733 Q=   -0.8200 A=    0.0000 R=    0.0000 C=    0.0000
 XYZ=    6.2070   -2.0701   -0.6386 Q=    0.4100 A=    0.0000 R=    0.0000 C=    0.0000
 XYZ=    6.5587   -2.3425    0.9327 Q=    0.4100 A=    0.0000 R=    0.0000 C=    0.0000
 XYZ=   -1.7612    0.6809    6.9652 Q=   -0.8200 A=    0.0000 R=    0.0000 C=    0.0000
 XYZ=   -1.5576   -0.2974    6.9243 Q=    0.4100 A=    0.0000 R=    0.0000 C=    0.0000
 XYZ=   -2.6650    0.8165    7.3711 Q=    0.4100 A=    0.0000 R=    0.0000 C=    0.0000
 XYZ=   -6.1647    2.2259   -2.6570 Q=   -0.8200 A=    0.0000 R=    0.0000 C=    0.0000
 XYZ=   -6.6721    1.3691   -2.5654 Q=    0.4100 A=    0.0000 R=    0.0000 C=    0.0000
 XYZ=   -6.2771    2.5823   -3.5846 Q=    0.4100 A=    0.0000 R=    0.0000 C=    0.0000
 XYZ=   -6.1786   -4.1333   -0.6374 Q=   -0.8200 A=    0.0000 R=    0.0000 C=    0.0000
 XYZ=   -5.9445   -4.9752   -1.1237 Q=    0.4100 A=    0.0000 R=    0.0000 C=    0.0000
 XYZ=   -5.4794   -3.9407    0.0511 Q=    0.4100 A=    0.0000 R=    0.0000 C=    0.0000
 XYZ=   -0.5039    2.6204    7.4477 Q=   -0.8200 A=    0.0000 R=    0.0000 C=    0.0000
 XYZ=   -1.0722    1.8462    7.1690 Q=    0.4100 A=    0.0000 R=    0.0000 C=    0.0000
 XYZ=   -0.5017    2.6901    8.4453 Q=    0.4100 A=    0.0000 R=    0.0000 C=    0.0000
 XYZ=   -1.3664    4.6747    6.7662 Q=   -0.8200 A=    0.0000 R=    0.0000 C=    0.0000
 XYZ=   -0.6344    5.1159    6.2470 Q=    0.4100 A=    0.0000 R=    0.0000 C=    0.0000
 XYZ=   -1.0987    3.7374    6.9890 Q=    0.4100 A=    0.0000 R=    0.0000 C=    0.0000
 XYZ=    7.5820    1.8862    2.3148 Q=   -0.8200 A=    0.0000 R=    0.0000 C=    0.0000
 XYZ=    7.3628    2.5057    1.5610 Q=    0.4100 A=    0.0000 R=    0.0000 C=    0.0000
 XYZ=    6.7358    1.5211    2.7030 Q=    0.4100 A=    0.0000 R=    0.0000 C=    0.0000
 XYZ=    6.8613    3.7052    0.9855 Q=   -0.8200 A=    0.0000 R=    0.0000 C=    0.0000
 XYZ=    6.2513    4.4239    1.3192 Q=    0.4100 A=    0.0000 R=    0.0000 C=    0.0000
 XYZ=    6.5672    3.4146    0.0750 Q=    0.4100 A=    0.0000 R=    0.0000 C=    0.0000
 XYZ=   -3.7195    4.7151   -5.2641 Q=   -0.8200 A=    0.0000 R=    0.0000 C=    0.0000
 XYZ=   -4.0307    4.4453   -4.3528 Q=    0.4100 A=    0.0000 R=    0.0000 C=    0.0000
 XYZ=   -4.2303    4.2043   -5.9555 Q=    0.4100 A=    0.0000 R=    0.0000 C=    0.0000
 XYZ=    3.4931   -6.3257    1.7548 Q=   -0.8200 A=    0.0000 R=    0.0000 C=    0.0000
 XYZ=    3.4925   -7.3251    1.7206 Q=    0.4100 A=    0.0000 R=    0.0000 C=    0.0000
 XYZ=    2.7174   -6.0104    2.3016 Q=    0.4100 A=    0.0000 R=    0.0000 C=    0.0000
 XYZ=   -3.2132   -2.4776    5.7940 Q=   -0.8200 A=    0.0000 R=    0.0000 C=    0.0000
 XYZ=   -2.4817   -2.0260    6.3049 Q=    0.4100 A=    0.0000 R=    0.0000 C=    0.0000
 XYZ=   -3.4116   -3.3651    6.2101 Q=    0.4100 A=    0.0000 R=    0.0000 C=    0.0000
 XYZ=    7.2083    0.4452   -0.7748 Q=   -0.8200 A=    0.0000 R=    0.0000 C=    0.0000
 XYZ=    6.5051    1.1561   -0.7839 Q=    0.4100 A=    0.0000 R=    0.0000 C=    0.0000
 XYZ=    6.8323   -0.3904   -0.3741 Q=    0.4100 A=    0.0000 R=    0.0000 C=    0.0000
 XYZ=    2.9402    3.1724    8.2750 Q=   -0.8200 A=    0.0000 R=    0.0000 C=    0.0000
 XYZ=    3.8251    3.4876    7.9320 Q=    0.4100 A=    0.0000 R=    0.0000 C=    0.0000
 XYZ=    2.3888    2.8334    7.5128 Q=    0.4100 A=    0.0000 R=    0.0000 C=    0.0000
 XYZ=    6.2805   -2.7521   -1.7564 Q=   -0.8200 A=    0.0000 R=    0.0000 C=    0.0000
 XYZ=    5.5471   -3.2794   -1.3272 Q=    0.4100 A=    0.0000 R=    0.0000 C=    0.0000
 XYZ=    7.1491   -3.2339   -1.6405 Q=    0.4100 A=    0.0000 R=    0.0000 C=    0.0000
 XYZ=   -0.8487    8.6019   -1.8930 Q=   -0.8200 A=    0.0000 R=    0.0000 C=    0.0000
 XYZ=    0.0924    8.8595   -2.1121 Q=    0.4100 A=    0.0000 R=    0.0000 C=    0.0000
 XYZ=   -0.8524    8.0021   -1.0928 Q=    0.4100 A=    0.0000 R=    0.0000 C=    0.0000
 XYZ=   -5.2911    5.2781   -1.6064 Q=   -0.8200 A=    0.0000 R=    0.0000 C=    0.0000
 XYZ=   -4.8593    6.1796   -1.5776 Q=    0.4100 A=    0.0000 R=    0.0000 C=    0.0000
 XYZ=   -6.0835    5.3073   -2.2157 Q=    0.4100 A=    0.0000 R=    0.0000 C=    0.0000
 XYZ=   -6.8807    3.1596   -0.3947 Q=   -0.8200 A=    0.0000 R=    0.0000 C=    0.0000
 XYZ=   -6.1299    3.6673    0.0280 Q=    0.4100 A=    0.0000 R=    0.0000 C=    0.0000
 XYZ=   -6.5709    2.7656   -1.2601 Q=    0.4100 A=    0.0000 R=    0.0000 C=    0.0000
 XYZ=    2.5621    7.2550   -2.9655 Q=   -0.8200 A=    0.0000 R=    0.0000 C=    0.0000
 XYZ=    3.4323    6.7637   -3.0026 Q=    0.4100 A=    0.0000 R=    0.0000 C=    0.0000
 XYZ=    1.9327    6.8696   -3.6404 Q=    0.4100 A=    0.0000 R=    0.0000 C=    0.0000
 XYZ=   -1.0688   -8.3518    1.5459 Q=   -0.8200 A=    0.0000 R=    0.0000 C=    0.0000
 XYZ=   -1.1307   -7.4379    1.1448 Q=    0.4100 A=    0.0000 R=    0.0000 C=    0.0000
 XYZ=   -0.9193   -9.0244    0.8211 Q=    0.4100 A=    0.0000 R=    0.0000 C=    0.0000
 XYZ=    6.1714   -0.1040    5.0453 Q=   -0.8200 A=    0.0000 R=    0.0000 C=    0.0000
 XYZ=    6.5684    0.3458    5.8454 Q=    0.4100 A=    0.0000 R=    0.0000 C=    0.0000
 XYZ=    6.6250   -0.9829    4.8978 Q=    0.4100 A=    0.0000 R=    0.0000 C=    0.0000
 XYZ=   -6.4905    1.6188    3.3431 Q=   -0.8200 A=    0.0000 R=    0.0000 C=    0.0000
 XYZ=   -5.5513    1.6665    3.0029 Q=    0.4100 A=    0.0000 R=    0.0000 C=    0.0000
 XYZ=   -6.6312    0.7469    3.8122 Q=    0.4100 A=    0.0000 R=    0.0000 C=    0.0000
 XYZ=   -5.1047    3.1429   -6.4121 Q=   -0.8200 A=    0.0000 R=    0.0000 C=    0.0000
 XYZ=   -5.3056    3.3858   -7.3611 Q=    0.4100 A=    0.0000 R=    0.0000 C=    0.0000
 XYZ=   -4.4911    2.3535   -6.3929 Q=    0.4100 A=    0.0000 R=    0.0000 C=    0.0000
 XYZ=   -2.2091    3.7054   -6.6889 Q=   -0.8200 A=    0.0000 R=    0.0000 C=    0.0000
 XYZ=   -2.7944    4.1862   -6.0360 Q=    0.4100 A=    0.0000 R=    0.0000 C=    0.0000
 XYZ=   -1.4467    4.2969   -6.9514 Q=    0.4100 A=    0.0000 R=    0.0000 C=    0.0000
 XYZ=    6.7857   -3.5359    1.6871 Q=   -0.8200 A=    0.0000 R=    0.0000 C=    0.0000
 XYZ=    6.4436   -3.1150    2.5272 Q=    0.4100 A=    0.0000 R=    0.0000 C=    0.0000
 XYZ=    6.2482   -4.3537    1.4813 Q=    0.4100 A=    0.0000 R=    0.0000 C=    0.0000
 XYZ=    0.9926   -4.4114    7.3829 Q=   -0.8200 A=    0.0000 R=    0.0000 C=    0.0000
 XYZ=    1.3767   -4.4092    6.4596 Q=    0.4100 A=    0.0000 R=    0.0000 C=    0.0000
 XYZ=    1.6335   -4.8551    8.0094 Q=    0.4100 A=    0.0000 R=    0.0000 C=    0.0000
 XYZ=    3.3489    7.8512   -0.6696 Q=   -0.8200 A=    0.0000 R=    0.0000 C=    0.0000
 XYZ=    2.5398    7.9455   -0.0894 Q=    0.4100 A=    0.0000 R=    0.0000 C=    0.0000
 XYZ=    3.0685    7.5843   -1.5917 Q=    0.4100 A=    0.0000 R=    0.0000 C=    0.0000
 XYZ=    5.7288    2.6257    6.1469 Q=   -0.8200 A=    0.0000 R=    0.0000 C=    0.0000
 XYZ=    6.6071    2.9450    5.7909 Q=    0.4100 A=    0.0000 R=    0.0000 C=    0.0000
 XYZ=    5.2999    3.3554    6.6796 Q=    0.4100 A=    0.0000 R=    0.0000 C=    0.0000
 XYZ=   -2.4106    6.7934   -5.5076 Q=   -0.8200 A=    0.0000 R=    0.0000 C=    0.0000
 XYZ=   -1.9039    6.8496   -4.6473 Q=    0.4100 A=    0.0000 R=    0.0000 C=    0.0000
 XYZ=   -2.9691    5.9639   -5.5119 Q=    0.4100 A=    0.0000 R=    0.0000 C=    0.0000
 XYZ=   -5.4241    5.1181    2.2409 Q=   -0.8200 A=    0.0000 R=    0.0000 C=    0.0000
 XYZ=   -6.2112    5.6487    1.9262 Q=    0.4100 A=    0.0000 R=    0.0000 C=    0.0000
 XYZ=   -5.6932    4.5535    3.0211 Q=    0.4100 A=    0.0000 R=    0.0000 C=    0.0000
 XYZ=    0.3832    8.7918    4.3758 Q=   -0.8200 A=    0.0000 R=    0.0000 C=    0.0000
 XYZ=    0.9927    8.0000    4.3356 Q=    0.4100 A=    0.0000 R=    0.0000 C=    0.0000
 XYZ=   -0.4689    8.5337    4.8312 Q=    0.4100 A=    0.0000 R=    0.0000 C=    0.0000
 XYZ=   -7.9203   -0.6556    0.9543 Q=   -0.8200 A=    0.0000 R=    0.0000 C=    0.0000
 XYZ=   -7.3067   -1.0807    0.2888 Q=    0.4100 A=    0.0000 R=    0.0000 C=    0.0000
 XYZ=   -7.6053    0.2725    1.1528 Q=    0.4100 A=    0.0000 R=    0.0000 C=    0.0000
 XYZ=    3.3252    1.2725   -7.6492 Q=   -0.8200 A=    0.0000 R=    0.0000 C=    0.0000
 XYZ=    3.5494    1.6556   -8.5453 Q=    0.4100 A=    0.0000 R=    0.0000 C=    0.0000
 XYZ=    2.4125    1.5760   -7.3759 Q=    0.4100 A=    0.0000 R=    0.0000 C=    0.0000
 XYZ=   -3.3656    6.0864    6.1857 Q=   -0.8200 A=    0.0000 R=    0.0000 C=    0.0000
 XYZ=   -3.6777    6.2503    5.2498 Q=    0.4100 A=    0.0000 R=    0.0000 C=    0.0000
 XYZ=   -2.5740    5.4756    6.1709 Q=    0.4100 A=    0.0000 R=    0.0000 C=    0.0000
 XYZ=    4.5801    6.0564   -3.0282 Q=   -0.8200 A=    0.0000 R=    0.0000 C=    0.0000
 XYZ=    5.2096    6.5416   -2.4213 Q=    0.4100 A=    0.0000 R=    0.0000 C=    0.0000
 XYZ=    5.1023    5.5558   -3.7186 Q=    0.4100 A=    0.0000 R=    0.0000 C=    0.0000
 XYZ=   -6.1224   -3.1033    3.5271 Q=   -0.8200 A=    0.0000 R=    0.0000 C=    0.0000
 XYZ=   -7.0139   -2.7223    3.2820 Q=    0.4100 A=    0.0000 R=    0.0000 C=    0.0000
 XYZ=   -5.5299   -2.3730    3.8671 Q=    0.4100 A=    0.0000 R=    0.0000 C=    0.0000
 XYZ=    5.7043   -5.5626    0.9820 Q=   -0.8200 A=    0.0000 R=    0.0000 C=    0.0000
 XYZ=    5.5592   -5.1684    0.0744 Q=    0.4100 A=    0.0000 R=    0.0000 C=    0.0000
 XYZ=    4.8455   -5.9483    1.3191 Q=    0.4100 A=    0.0000 R=    0.0000 C=    0.0000
 XYZ=   -4.5098    7.3689   -1.2581 Q=   -0.8200 A=    0.0000 R=    0.0000 C=    0.0000
 XYZ=   -3.8806    7.8586   -1.8618 Q=    0.4100 A=    0.0000 R=    0.0000 C=    0.0000
 XYZ=   -5.2282    7.9922   -0.9491 Q=    0.4100 A=    0.0000 R=    0.0000 C=    0.0000
 XYZ=   -3.9785    1.5794   -8.8887 Q=   -0.8200 A=    0.0000 R=    0.0000 C=    0.0000
 XYZ=   -4.1446    0.7638   -9.4429 Q=    0.4100 A=    0.0000 R=    0.0000 C=    0.0000
 XYZ=   -3.5469    1.3142   -8.0265 Q=    0.4100 A=    0.0000 R=    0.0000 C=    0.0000
 XYZ=   -4.7711   -6.9585    3.0757 Q=   -0.8200 A=    0.0000 R=    0.0000 C=    0.0000
 XYZ=   -4.1608   -6.4928    2.4349 Q=    0.4100 A=    0.0000 R=    0.0000 C=    0.0000
 XYZ=   -5.4766   -6.3216    3.3867 Q=    0.4100 A=    0.0000 R=    0.0000 C=    0.0000
 XYZ=    7.3651    6.5860    1.4726 Q=   -0.8200 A=    0.0000 R=    0.0000 C=    0.0000
 XYZ=    6.4755    6.1355    1.5479 Q=    0.4100 A=    0.0000 R=    0.0000 C=    0.0000
 XYZ=    8.0456    5.9280    1.1500 Q=    0.4100 A=    0.0000 R=    0.0000 C=    0.0000
 XYZ=   -4.5225    6.6720    3.9545 Q=   -0.8200 A=    0.0000 R=    0.0000 C=    0.0000
 XYZ=   -5.4129    7.0795    4.1572 Q=    0.4100 A=    0.0000 R=    0.0000 C=    0.0000
 XYZ=   -4.6144    6.0337    3.1902 Q=    0.4100 A=    0.0000 R=    0.0000 C=    0.0000
 XYZ=    4.8748   -0.2629   -6.5105 Q=   -0.8200 A=    0.0000 R=    0.0000 C=    0.0000
 XYZ=    4.1490    0.3235   -6.8703 Q=    0.4100 A=    0.0000 R=    0.0000 C=    0.0000
 XYZ=    5.4328    0.2565   -5.8633 Q=    0.4100 A=    0.0000 R=    0.0000 C=    0.0000
 XYZ=    6.4856    2.6880   -3.5869 Q=   -0.8200 A=    0.0000 R=    0.0000 C=    0.0000
 XYZ=    5.9741    3.4681   -3.9473 Q=    0.4100 A=    0.0000 R=    0.0000 C=    0.0000
 XYZ=    6.4559    1.9366   -4.2461 Q=    0.4100 A=    0.0000 R=    0.0000 C=    0.0000
 XYZ=    0.3157   -7.5442    3.6416 Q=   -0.8200 A=    0.0000 R=    0.0000 C=    0.0000
 XYZ=   -0.4672   -7.3304    4.2259 Q=    0.4100 A=    0.0000 R=    0.0000 C=    0.0000
 XYZ=   -0.0069   -7.9583    2.7903 Q=    0.4100 A=    0.0000 R=    0.0000 C=    0.0000
 XYZ=   -5.4751   -6.0417   -2.1616 Q=   -0.8200 A=    0.0000 R=    0.0000 C=    0.0000
 XYZ=   -5.9145   -5.9080   -3.0500 Q=    0.4100 A=    0.0000 R=    0.0000 C=    0.0000
 XYZ=   -5.4187   -7.0199   -1.9616 Q=    0.4100 A=    0.0000 R=    0.0000 C=    0.0000
 XYZ=    6.8523   -1.5080   -3.6305 Q=   -0.8200 A=    0.0000 R=    0.0000 C=    0.0000
 XYZ=    7.7552   -1.0952   -3.5101 Q=    0.4100 A=    0.0000 R=    0.0000 C=    0.0000
 XYZ=    6.6054   -2.0158   -2.8052 Q=    0.4100 A=    0.0000 R=    0.0000 C=    0.0000
 XYZ=    4.5884   -0.1618    7.8872 Q=   -0.8200 A=    0.0000 R=    0.0000 C=    0.0000
 XYZ=    5.4857    0.1956    7.6282 Q=    0.4100 A=    0.0000 R=    0.0000 C=    0.0000
 XYZ=    4.4212    0.0269    8.8549 Q=    0.4100 A=    0.0000 R=    0.0000 C=    0.0000
 XYZ=   -6.8904    3.2214   -4.9016 Q=   -0.8200 A=    0.0000 R=    0.0000 C=    0.0000
 XYZ=   -6.1653    3.1899   -5.5896 Q=    0.4100 A=    0.0000 R=    0.0000 C=    0.0000
 XYZ=   -7.7511    2.9180   -5.3104 Q=    0.4100 A=    0.0000 R=    0.0000 C=    0.0000
 XYZ=    4.9852   -6.0144   -2.7982 Q=   -0.8200 A=    0.0000 R=    0.0000 C=    0.0000
 XYZ=    5.7158   -6.6973   -2.7938 Q=    0.4100 A=    0.0000 R=    0.0000 C=    0.0000
 XYZ=    5.0513   -5.4611   -3.6285 Q=    0.4100 A=    0.0000 R=    0.0000 C=    0.0000
 XYZ=   -6.9109   -0.4391    4.4215 Q=   -0.8200 A=    0.0000 R=    0.0000 C=    0.0000
 XYZ=   -7.4817   -1.0372    3.8588 Q=    0.4100 A=    0.0000 R=    0.0000 C=    0.0000
 XYZ=   -5.9616   -0.7513    4.3825 Q=    0.4100 A=    0.0000 R=    0.0000 C=    0.0000
 XYZ=    1.2840    9.3446   -2.7565 Q=   -0.8200 A=    0.0000 R=    0.0000 C=    0.0000
 XYZ=    0.9126    9.5332   -3.6657 Q=    0.4100 A=    0.0000 R=    0.0000 C=    0.0000
 XYZ=    1.9382    8.5905   -2.8137 Q=    0.4100 A=    0.0000 R=    0.0000 C=    0.0000
 XYZ=    1.7020    5.5761   -6.6624 Q=   -0.8200 A=    0.0000 R=    0.0000 C=    0.0000
 XYZ=    1.5353    4.7376   -7.1813 Q=    0.4100 A=    0.0000 R=    0.0000 C=    0.0000
 XYZ=    2.6659    5.8306   -6.7411 Q=    0.4100 A=    0.0000 R=    0.0000 C=    0.0000
 XYZ=   -0.0640   -2.8902    8.7457 Q=   -0.8200 A=    0.0000 R=    0.0000 C=    0.0000
 XYZ=    0.2824   -3.5553    8.0841 Q=    0.4100 A=    0.0000 R=    0.0000 C=    0.0000
 XYZ=   -0.9191   -3.2267    9.1401 Q=    0.4100 A=    0.0000 R=    0.0000 C=    0.0000
 XYZ=    6.7136    0.8435    7.1302 Q=   -0.8200 A=    0.0000 R=    0.0000 C=    0.0000
 XYZ=    6.2695    1.6598    6.7608 Q=    0.4100 A=    0.0000 R=    0.0000 C=    0.0000
 XYZ=    7.6114    1.0892    7.4959 Q=    0.4100 A=    0.0000 R=    0.0000 C=    0.0000
 XYZ=    6.3141    5.4600    5.1776 Q=   -0.8200 A=    0.0000 R=    0.0000 C=    0.0000
 XYZ=    6.8990    6.2678    5.2511 Q=    0.4100 A=    0.0000 R=    0.0000 C=    0.0000
 XYZ=    6.8602    4.6375    5.3363 Q=    0.4100 A=    0.0000 R=    0.0000 C=    0.0000
 XYZ=    5.4443   -2.3741   -5.5406 Q=   -0.8200 A=    0.0000 R=    0.0000 C=    0.0000
 XYZ=    6.1510   -2.1718   -4.8626 Q=    0.4100 A=    0.0000 R=    0.0000 C=    0.0000
 XYZ=    5.0584   -1.5184   -5.8853 Q=    0.4100 A=    0.0000 R=    0.0000 C=    0.0000
 XYZ=   -7.7160    1.6317    1.3537 Q=   -0.8200 A=    0.0000 R=    0.0000 C=    0.0000
 XYZ=   -7.5362    2.2869    0.6199 Q=    0.4100 A=    0.0000 R=    0.0000 C=    0.0000
 XYZ=   -7.1296    1.8391    2.1367 Q=    0.4100 A=    0.0000 R=    0.0000 C=    0.0000
 XYZ=   -3.0264    8.8055   -2.4998 Q=   -0.8200 A=    0.0000 R=    0.0000 C=    0.0000
 XYZ=   -3.5542    9.3850   -1.8787 Q=    0.4100 A=    0.0000 R=    0.0000 C=    0.0000
 XYZ=   -2.0545    8.8746   -2.2749 Q=    0.4100 A=    0.0000 R=    0.0000 C=    0.0000
 XYZ=   -2.8382    8.2583    3.4433 Q=   -0.8200 A=    0.0000 R=    0.0000 C=    0.0000
 XYZ=   -3.4675    7.4900    3.5604 Q=    0.4100 A=    0.0000 R=    0.0000 C=    0.0000
 XYZ=   -3.3570    9.1127    3.4148 Q=    0.4100 A=    0.0000 R=    0.0000 C=    0.0000
 XYZ=    2.0736    5.2735    8.5797 Q=   -0.8200 A=    0.0000 R=    0.0000 C=    0.0000
 XYZ=    1.3479    5.2234    9.2660 Q=    0.4100 A=    0.0000 R=    0.0000 C=    0.0000
 XYZ=    2.4909    4.3715    8.4695 Q=    0.4100 A=    0.0000 R=    0.0000 C=    0.0000
 XYZ=    8.8579    4.8201    1.3456 Q=   -0.8200 A=    0.0000 R=    0.0000 C=    0.0000
 XYZ=    9.2405    4.7950    2.2693 Q=    0.4100 A=    0.0000 R=    0.0000 C=    0.0000
 XYZ=    8.0132    4.2855    1.3200 Q=    0.4100 A=    0.0000 R=    0.0000 C=    0.0000
 XYZ=   -0.8214    5.7380   -7.0705 Q=   -0.8200 A=    0.0000 R=    0.0000 C=    0.0000
 XYZ=    0.0607    6.1913   -7.1989 Q=    0.4100 A=    0.0000 R=    0.0000 C=    0.0000
 XYZ=   -1.4147    6.3160   -6.5102 Q=    0.4100 A=    0.0000 R=    0.0000 C=    0.0000
 XYZ=   -9.3715    0.1326   -2.2350 Q=   -0.8200 A=    0.0000 R=    0.0000 C=    0.0000
 XYZ=   -9.5505    0.9647   -2.7601 Q=    0.4100 A=    0.0000 R=    0.0000 C=    0.0000
 XYZ=   -8.4133   -0.1315   -2.3452 Q=    0.4100 A=    0.0000 R=    0.0000 C=    0.0000
 XYZ=    0.3225    9.4061    2.1984 Q=   -0.8200 A=    0.0000 R=    0.0000 C=    0.0000
 XYZ=   -0.6092    9.3133    1.8473 Q=    0.4100 A=    0.0000 R=    0.0000 C=    0.0000
 XYZ=    0.3333    9.1927    3.1754 Q=    0.4100 A=    0.0000 R=    0.0000 C=    0.0000
 XYZ=   -3.2783   -8.3850   -0.6427 Q=   -0.8200 A=    0.0000 R=    0.0000 C=    0.0000
 XYZ=   -4.1993   -8.4921   -1.0174 Q=    0.4100 A=    0.0000 R=    0.0000 C=    0.0000
 XYZ=   -2.7290   -9.1880   -0.8740 Q=    0.4100 A=    0.0000 R=    0.0000 C=    0.0000
 XYZ=   -1.9945    9.0522    1.4250 Q=   -0.8200 A=    0.0000 R=    0.0000 C=    0.0000
 XYZ=   -2.4441    8.7281    2.2574 Q=    0.4100 A=    0.0000 R=    0.0000 C=    0.0000
 XYZ=   -2.4723    9.8607    1.0814 Q=    0.4100 A=    0.0000 R=    0.0000 C=    0.0000
 XYZ=   -1.0003   -5.8131    7.1166 Q=   -0.8200 A=    0.0000 R=    0.0000 C=    0.0000
 XYZ=   -0.2334   -5.1732    7.1656 Q=    0.4100 A=    0.0000 R=    0.0000 C=    0.0000
 XYZ=   -1.8580   -5.3019    7.0628 Q=    0.4100 A=    0.0000 R=    0.0000 C=    0.0000
 XYZ=   -6.3231    3.8182    4.2914 Q=   -0.8200 A=    0.0000 R=    0.0000 C=    0.0000
 XYZ=   -6.0875    3.7104    5.2573 Q=    0.4100 A=    0.0000 R=    0.0000 C=    0.0000
 XYZ=   -6.4321    2.9168    3.8723 Q=    0.4100 A=    0.0000 R=    0.0000 C=    0.0000
 XYZ=   -7.8359   -5.4012    0.4517 Q=   -0.8200 A=    0.0000 R=    0.0000 C=    0.0000
 XYZ=   -8.6930   -5.1463    0.0041 Q=    0.4100 A=    0.0000 R=    0.0000 C=    0.0000
 XYZ=   -7.0896   -4.8469    0.0830 Q=    0.4100 A=    0.0000 R=    0.0000 C=    0.0000
 XYZ=    5.4844   -4.7344   -4.7319 Q=   -0.8200 A=    0.0000 R=    0.0000 C=    0.0000
 XYZ=    5.5198   -3.7521   -4.9158 Q=    0.4100 A=    0.0000 R=    0.0000 C=    0.0000
 XYZ=    5.0784   -5.2056   -5.5149 Q=    0.4100 A=    0.0000 R=    0.0000 C=    0.0000
 XYZ=    5.0712    4.1141    7.7530 Q=   -0.8200 A=    0.0000 R=    0.0000 C=    0.0000
 XYZ=    5.6848    3.7270    8.4413 Q=    0.4100 A=    0.0000 R=    0.0000 C=    0.0000
 XYZ=    5.2894    5.0807    7.6179 Q=    0.4100 A=    0.0000 R=    0.0000 C=    0.0000
 XYZ=   -2.0851    5.7622    8.7916 Q=   -0.8200 A=    0.0000 R=    0.0000 C=    0.0000
 XYZ=   -2.4662    6.6727    8.6304 Q=    0.4100 A=    0.0000 R=    0.0000 C=    0.0000
 XYZ=   -1.5740    5.4671    7.9844 Q=    0.4100 A=    0.0000 R=    0.0000 C=    0.0000
 XYZ=   -1.5889    8.3143    5.4979 Q=   -0.8200 A=    0.0000 R=    0.0000 C=    0.0000
 XYZ=   -2.0545    8.3222    4.6130 Q=    0.4100 A=    0.0000 R=    0.0000 C=    0.0000
 XYZ=   -2.2402    8.5500    6.2193 Q=    0.4100 A=    0.0000 R=    0.0000 C=    0.0000
 XYZ=   -1.3908   -6.8193    5.1275 Q=   -0.8200 A=    0.0000 R=    0.0000 C=    0.0000
 XYZ=   -1.1152   -6.6530    6.0744 Q=    0.4100 A=    0.0000 R=    0.0000 C=    0.0000
 XYZ=   -2.2910   -7.2546    5.1140 Q=    0.4100 A=    0.0000 R=    0.0000 C=    0.0000
 XYZ=    9.1240    0.8042    0.4980 Q=   -0.8200 A=    0.0000 R=    0.0000 C=    0.0000
 XYZ=    8.6701    1.0784    1.3459 Q=    0.4100 A=    0.0000 R=    0.0000 C=    0.0000
 XYZ=    8.4368    0.5243   -0.1725 Q=    0.4100 A=    0.0000 R=    0.0000 C=    0.0000
 XYZ=    8.3547    1.7296   -2.5144 Q=   -0.8200 A=    0.0000 R=    0.0000 C=    0.0000
 XYZ=    7.6304    2.0672   -3.1155 Q=    0.4100 A=    0.0000 R=    0.0000 C=    0.0000
 XYZ=    7.9462    1.2997   -1.7092 Q=    0.4100 A=    0.0000 R=    0.0000 C=    0.0000
 XYZ=    5.6627    7.6562   -1.6223 Q=   -0.8200 A=    0.0000 R=    0.0000 C=    0.0000
 XYZ=    4.8352    7.9833   -1.1660 Q=    0.4100 A=    0.0000 R=    0.0000 C=    0.0000
 XYZ=    6.4566    7.8345   -1.0408 Q=    0.4100 A=    0.0000 R=    0.0000 C=    0.0000
 XYZ=    5.8768    4.7766   -4.5434 Q=   -0.8200 A=    0.0000 R=    0.0000 C=    0.0000
 XYZ=    6.8037    4.9359   -4.2036 Q=    0.4100 A=    0.0000 R=    0.0000 C=    0.0000
 XYZ=    5.8736    4.8328   -5.5418 Q=    0.4100 A=    0.0000 R=    0.0000 C=    0.0000
 XYZ=    9.2047    3.0207    3.6707 Q=   -0.8200 A=    0.0000 R=    0.0000 C=    0.0000
 XYZ=    8.6340    2.3981    3.1353 Q=    0.4100 A=    0.0000 R=    0.0000 C=    0.0000
 XYZ=   10.0555    2.5594    3.9227 Q=    0.4100 A=    0.0000 R=    0.0000 C=    0.0000
 XYZ=    5.2211    6.5128    7.3258 Q=   -0.8200 A=    0.0000 R=    0.0000 C=    0.0000
 XYZ=    6.0756    6.7691    7.7776 Q=    0.4100 A=    0.0000 R=    0.0000 C=    0.0000
 XYZ=    5.4118    6.2380    6.3834 Q=    0.4100 A=    0.0000 R=    0.0000 C=    0.0000
 XYZ=    6.4933    0.8178   -5.0054 Q=   -0.8200 A=    0.0000 R=    0.0000 C=    0.0000
 XYZ=    7.2089    0.8005   -5.7037 Q=    0.4100 A=    0.0000 R=    0.0000 C=    0.0000
 XYZ=    6.5917    0.0220   -4.4077 Q=    0.4100 A=    0.0000 R=    0.0000 C=    0.0000
 XYZ=    7.7421    3.4022    5.4488 Q=   -0.8200 A=    0.0000 R=    0.0000 C=    0.0000
 XYZ=    8.3317    3.2641    4.6530 Q=    0.4100 A=    0.0000 R=    0.0000 C=    0.0000
 XYZ=    8.2892    3.7416    6.2140 Q=    0.4100 A=    0.0000 R=    0.0000 C=    0.0000
 XYZ=   -6.4705   -5.5293    3.8721 Q=   -0.8200 A=    0.0000 R=    0.0000 C=    0.0000
 XYZ=   -7.3783   -5.6659    3.4756 Q=    0.4100 A=    0.0000 R=    0.0000 C=    0.0000
 XYZ=   -6.2737   -4.5502    3.9247 Q=    0.4100 A=    0.0000 R=    0.0000 C=    0.0000
 XYZ=   -8.5252    4.8957    0.0561 Q=   -0.8200 A=    0.0000 R=    0.0000 C=    0.0000
 XYZ=   -7.9827    4.1584   -0.3467 Q=    0.4100 A=    0.0000 R=    0.0000 C=    0.0000
 XYZ=   -9.2550    4.5045    0.6168 Q=    0.4100 A=    0.0000 R=    0.0000 C=    0.0000
 XYZ=    2.2090    2.3706   10.3965 Q=   -0.8200 A=    0.0000 R=    0.0000 C=    0.0000
 XYZ=    2.7007    2.4633    9.5307 Q=    0.4100 A=    0.0000 R=    0.0000 C=    0.0000
 XYZ=    2.2335    1.4158   10.6931 Q=    0.4100 A=    0.0000 R=    0.0000 C=    0.0000
 XYZ=   -7.1831    5.2874   -3.5783 Q=   -0.8200 A=    0.0000 R=    0.0000 C=    0.0000
 XYZ=   -7.5333    6.0725   -4.0893 Q=    0.4100 A=    0.0000 R=    0.0000 C=    0.0000
 XYZ=   -7.0711    4.5100   -4.1972 Q=    0.4100 A=    0.0000 R=    0.0000 C=    0.0000
 XYZ=   -3.2492   -4.3661    7.1376 Q=   -0.8200 A=    0.0000 R=    0.0000 C=    0.0000
 XYZ=   -3.9379   -5.0909    7.1223 Q=    0.4100 A=    0.0000 R=    0.0000 C=    0.0000
 XYZ=   -3.0778   -4.0891    8.0831 Q=    0.4100 A=    0.0000 R=    0.0000 C=    0.0000
 XYZ=   -6.5095   -6.1487   -4.8527 Q=   -0.8200 A=    0.0000 R=    0.0000 C=    0.0000
 XYZ=   -7.4135   -6.2700   -5.2629 Q=    0.4100 A=    0.0000 R=    0.0000 C=    0.0000
 XYZ=   -6.0162   -5.4283   -5.3402 Q=    0.4100 A=    0.0000 R=    0.0000 C=    0.0000
 XYZ=    8.8430   -4.3587    0.5632 Q=   -0.8200 A=    0.0000 R=    0.0000 C=    0.0000
 XYZ=    8.0939   -3.9584    1.0911 Q=    0.4100 A=    0.0000 R=    0.0000 C=    0.0000
 XYZ=    8.6878   -4.1965   -0.4113 Q=    0.4100 A=    0.0000 R=    0.0000 C=    0.0000
 XYZ=    5.0154   -1.5221   -8.4105 Q=   -0.8200 A=    0.0000 R=    0.0000 C=    0.0000
 XYZ=    4.9866   -2.4755   -8.1101 Q=    0.4100 A=    0.0000 R=    0.0000 C=    0.0000
 XYZ=    4.8770   -0.9205   -7.6238 Q=    0.4100 A=    0.0000 R=    0.0000 C=    0.0000
 XYZ=   -5.7258   -4.8978   -6.9181 Q=   -0.8200 A=    0.0000 R=    0.0000 C=    0.0000
 XYZ=   -5.3601   -4.1501   -7.4725 Q=    0.4100 A=    0.0000 R=    0.0000 C=    0.0000
 XYZ=   -6.5726   -5.2347   -7.3297 Q=    0.4100 A=    0.0000 R=    0.0000 C=    0.0000
 XYZ=   -3.1684    9.0785   -4.9080 Q=   -0.8200 A=    0.0000 R=    0.0000 C=    0.0000
 XYZ=   -3.1594    9.0039   -3.9109 Q=    0.4100 A=    0.0000 R=    0.0000 C=    0.0000
 XYZ=   -2.9486    8.1900   -5.3108 Q=    0.4100 A=    0.0000 R=    0.0000 C=    0.0000
 XYZ=   -0.0120    3.0096    9.9077 Q=   -0.8200 A=    0.0000 R=    0.0000 C=    0.0000
 XYZ=    0.8863    2.5820   10.0097 Q=    0.4100 A=    0.0000 R=    0.0000 C=    0.0000
 XYZ=    0.0354    3.9611   10.2119 Q=    0.4100 A=    0.0000 R=    0.0000 C=    0.0000
 XYZ=   -3.7461   -7.5953    5.1684 Q=   -0.8200 A=    0.0000 R=    0.0000 C=    0.0000
 XYZ=   -4.0595   -7.3222    4.2588 Q=    0.4100 A=    0.0000 R=    0.0000 C=    0.0000
 XYZ=   -4.1214   -6.9694    5.8521 Q=    0.4100 A=    0.0000 R=    0.0000 C=    0.0000
 XYZ=   -1.1499    4.6869   -9.0750 Q=   -0.8200 A=    0.0000 R=    0.0000 C=    0.0000
 XYZ=   -1.1843    5.2035   -8.2195 Q=    0.4100 A=    0.0000 R=    0.0000 C=    0.0000
 XYZ=   -1.7341    5.1295   -9.7553 Q=    0.4100 A=    0.0000 R=    0.0000 C=    0.0000
 XYZ=    0.6822   -1.6090   10.6035 Q=   -0.8200 A=    0.0000 R=    0.0000 C=    0.0000
 XYZ=    0.5815   -2.1353    9.7592 Q=    0.4100 A=    0.0000 R=    0.0000 C=    0.0000
 XYZ=   -0.2100   -1.2549   10.8839 Q=    0.4100 A=    0.0000 R=    0.0000 C=    0.0000
 XYZ=   -8.1465   -1.8703    2.9504 Q=   -0.8200 A=    0.0000 R=    0.0000 C=    0.0000
 XYZ=   -8.3039   -1.3038    2.1414 Q=    0.4100 A=    0.0000 R=    0.0000 C=    0.0000
 XYZ=   -8.9139   -2.5002    3.0705 Q=    0.4100 A=    0.0000 R=    0.0000 C=    0.0000
 XYZ=   -2.1516    2.8089  -10.0472 Q=   -0.8200 A=    0.0000 R=    0.0000 C=    0.0000
 XYZ=   -2.9265    2.4590   -9.5207 Q=    0.4100 A=    0.0000 R=    0.0000 C=    0.0000
 XYZ=   -1.7842    3.6235   -9.5983 Q=    0.4100 A=    0.0000 R=    0.0000 C=    0.0000
 XYZ=   -9.9112   -0.7645   -0.1682 Q=   -0.8200 A=    0.0000 R=    0.0000 C=    0.0000
 XYZ=   -9.7225   -0.2414   -0.9993 Q=    0.4100 A=    0.0000 R=    0.0000 C=    0.0000
 XYZ=   -9.0861   -0.8039    0.3954 Q=    0.4100 A=    0.0000 R=    0.0000 C=    0.0000
 XYZ=   -5.2650    5.4538    7.4671 Q=   -0.8200 A=    0.0000 R=    0.0000 C=    0.0000
 XYZ=   -5.8909    6.2189    7.3159 Q=    0.4100 A=    0.0000 R=    0.0000 C=    0.0000
 XYZ=   -4.3723    5.6704    7.0719 Q=    0.4100 A=    0.0000 R=    0.0000 C=    0.0000
 XYZ=   -4.2650   -6.9151   -7.0804 Q=   -0.8200 A=    0.0000 R=    0.0000 C=    0.0000
 XYZ=   -4.4226   -5.9498   -6.8721 Q=    0.4100 A=    0.0000 R=    0.0000 C=    0.0000
 XYZ=   -4.7825   -7.4830   -6.4403 Q=    0.4100 A=    0.0000 R=    0.0000 C=    0.0000
 XYZ=   -2.5309  -10.3063    1.6224 Q=   -0.8200 A=    0.0000 R=    0.0000 C=    0.0000
 XYZ=   -2.0524   -9.4572    1.8466 Q=    0.4100 A=    0.0000 R=    0.0000 C=    0.0000
 XYZ=   -2.5761  -10.4110    0.6289 Q=    0.4100 A=    0.0000 R=    0.0000 C=    0.0000
 XYZ=   -5.9699    3.3245    6.4540 Q=   -0.8200 A=    0.0000 R=    0.0000 C=    0.0000
 XYZ=   -6.2639    2.7152    7.1905 Q=    0.4100 A=    0.0000 R=    0.0000 C=    0.0000
 XYZ=   -5.5876    4.1611    6.8462 Q=    0.4100 A=    0.0000 R=    0.0000 C=    0.0000
 XYZ=   -5.2982    3.5362   -8.7688 Q=   -0.8200 A=    0.0000 R=    0.0000 C=    0.0000
 XYZ=   -4.9524    4.2430   -9.3860 Q=    0.4100 A=    0.0000 R=    0.0000 C=    0.0000
 XYZ=   -4.7677    2.6975   -8.8920 Q=    0.4100 A=    0.0000 R=    0.0000 C=    0.0000
 XYZ=   -1.3233   -0.7996  -11.1444 Q=   -0.8200 A=    0.0000 R=    0.0000 C=    0.0000
 XYZ=   -1.4123   -1.7635  -11.3953 Q=    0.4100 A=    0.0000 R=    0.0000 C=    0.0000
 XYZ=   -1.8736   -0.6151  -10.3300 Q=    0.4100 A=    0.0000 R=    0.0000 C=    0.0000
 XYZ=    7.5744   -5.1080   -3.4804 Q=   -0.8200 A=    0.0000 R=    0.0000 C=    0.0000
 XYZ=    6.8048   -4.8779   -4.0761 Q=    0.4100 A=    0.0000 R=    0.0000 C=    0.0000
 XYZ=    8.4327   -4.9510   -3.9689 Q=    0.4100 A=    0.0000 R=    0.0000 C=    0.0000
 XYZ=    5.5281   -3.6923   -7.6067 Q=   -0.8200 A=    0.0000 R=    0.0000 C=    0.0000
 XYZ=    5.5039   -3.2042   -6.7342 Q=    0.4100 A=    0.0000 R=    0.0000 C=    0.0000
 XYZ=    6.4763   -3.7848   -7.9105 Q=    0.4100 A=    0.0000 R=    0.0000 C=    0.0000
 XYZ=    1.1019   11.3295    1.2412 Q=   -0.8200 A=    0.0000 R=    0.0000 C=    0.0000
 XYZ=    0.8404   10.5122    1.7549 Q=    0.4100 A=    0.0000 R=    0.0000 C=    0.0000
 XYZ=    1.1684   11.1049    0.2690 Q=    0.4100 A=    0.0000 R=    0.0000 C=    0.0000
 XYZ=    1.3928   11.1064   -1.0362 Q=   -0.8200 A=    0.0000 R=    0.0000 C=    0.0000
 XYZ=    2.2307   11.6344   -1.1749 Q=    0.4100 A=    0.0000 R=    0.0000 C=    0.0000
 XYZ=    1.3354   10.3849   -1.7263 Q=    0.4100 A=    0.0000 R=    0.0000 C=    0.0000
 XYZ=   -8.8200    4.0135   -2.0407 Q=   -0.8200 A=    0.0000 R=    0.0000 C=    0.0000
 XYZ=   -8.2403    4.5733   -2.6329 Q=    0.4100 A=    0.0000 R=    0.0000 C=    0.0000
 XYZ=   -8.9863    4.4986   -1.1821 Q=    0.4100 A=    0.0000 R=    0.0000 C=    0.0000
 XYZ=   -7.4112    6.2399    1.7532 Q=   -0.8200 A=    0.0000 R=    0.0000 C=    0.0000
 XYZ=   -7.8780    6.0483    2.6166 Q=    0.4100 A=    0.0000 R=    0.0000 C=    0.0000
 XYZ=   -7.8867    5.7740    1.0068 Q=    0.4100 A=    0.0000 R=    0.0000 C=    0.0000
 XYZ=   -3.1536    7.7411    7.8857 Q=   -0.8200 A=    0.0000 R=    0.0000 C=    0.0000
 XYZ=   -3.2932    7.1606    7.0835 Q=    0.4100 A=    0.0000 R=    0.0000 C=    0.0000
 XYZ=   -4.0394    8.0526    8.2299 Q=    0.4100 A=    0.0000 R=    0.0000 C=    0.0000
 XYZ=    3.8364    6.5559    9.2479 Q=   -0.8200 A=    0.0000 R=    0.0000 C=    0.0000
 XYZ=    3.0415    5.9998    9.0050 Q=    0.4100 A=    0.0000 R=    0.0000 C=    0.0000
 XYZ=    4.4404    6.6380    8.4552 Q=    0.4100 A=    0.0000 R=    0.0000 C=    0.0000
 XYZ=    0.4408    9.4788   -4.8540 Q=   -0.8200 A=    0.0000 R=    0.0000 C=    0.0000
 XYZ=   -0.3222   10.1182   -4.9489 Q=    0.4100 A=    0.0000 R=    0.0000 C=    0.0000
 XYZ=    0.6333    9.0557   -5.7394 Q=    0.4100 A=    0.0000 R=    0.0000 C=    0.0000
 XYZ=   -5.2379   -3.3259   -8.6596 Q=   -0.8200 A=    0.0000 R=    0.0000 C=    0.0000
 XYZ=   -4.8665   -3.6924   -9.5127 Q=    0.4100 A=    0.0000 R=    0.0000 C=    0.0000
 XYZ=   -5.8218   -2.5394   -8.8611 Q=    0.4100 A=    0.0000 R=    0.0000 C=    0.0000
 XYZ=    2.6091    4.1154   -8.5650 Q=   -0.8200 A=    0.0000 R=    0.0000 C=    0.0000
 XYZ=    3.2562    4.7795   -8.1904 Q=    0.4100 A=    0.0000 R=    0.0000 C=    0.0000
 XYZ=    3.1110    3.3352   -8.9385 Q=    0.4100 A=    0.0000 R=    0.0000 C=    0.0000
 XYZ=    7.6332    8.1080   -0.3655 Q=   -0.8200 A=    0.0000 R=    0.0000 C=    0.0000
 XYZ=    8.0978    8.9644   -0.1399 Q=    0.4100 A=    0.0000 R=    0.0000 C=    0.0000
 XYZ=    7.4943    7.5744    0.4687 Q=    0.4100 A=    0.0000 R=    0.0000 C=    0.0000
 XYZ=    7.9123   -6.6763    0.9650 Q=   -0.8200 A=    0.0000 R=    0.0000 C=    0.0000
 XYZ=    8.4605   -5.8521    0.8229 Q=    0.4100 A=    0.0000 R=    0.0000 C=    0.0000
 XYZ=    6.9486   -6.4244    1.0537 Q=    0.4100 A=    0.0000 R=    0.0000 C=    0.0000
 XYZ=   -5.6449   -8.2702   -1.5892 Q=   -0.8200 A=    0.0000 R=    0.0000 C=    0.0000
 XYZ=   -6.5147   -8.2227   -1.0980 Q=    0.4100 A=    0.0000 R=    0.0000 C=    0.0000
 XYZ=   -5.6951   -8.9843   -2.2875 Q=    0.4100 A=    0.0000 R=    0.0000 C=    0.0000
 XYZ=   -0.2452   -5.6641   -9.3895 Q=   -0.8200 A=    0.0000 R=    0.0000 C=    0.0000
 XYZ=   -0.2456   -4.6682   -9.2980 Q=    0.4100 A=    0.0000 R=    0.0000 C=    0.0000
 XYZ=   -0.9784   -6.0505   -8.8300 Q=    0.4100 A=    0.0000 R=    0.0000 C=    0.0000
 XYZ=    4.0157    5.8726   -7.2481 Q=   -0.8200 A=    0.0000 R=    0.0000 C=    0.0000
 XYZ=    4.9363    5.5486   -7.0300 Q=    0.4100 A=    0.0000 R=    0.0000 C=    0.0000
 XYZ=    4.0584    6.8296   -7.5348 Q=    0.4100 A=    0.0000 R=    0.0000 C=    0.0000
 XYZ=   -9.9580    1.5208    1.2391 Q=   -0.8200 A=    0.0000 R=    0.0000 C=    0.0000
 XYZ=   -9.0430    1.3802    1.6175 Q=    0.4100 A=    0.0000 R=    0.0000 C=    0.0000
 XYZ=  -10.2430    0.7006    0.7430 Q=    0.4100 A=    0.0000 R=    0.0000 C=    0.0000
 XYZ=    0.9172   10.4470    6.2254 Q=   -0.8200 A=    0.0000 R=    0.0000 C=    0.0000
 XYZ=    0.7302    9.9510    5.3774 Q=    0.4100 A=    0.0000 R=    0.0000 C=    0.0000
 XYZ=    1.9055   10.5068    6.3655 Q=    0.4100 A=    0.0000 R=    0.0000 C=    0.0000
 XYZ=   -6.2689   -8.5076    2.1877 Q=   -0.8200 A=    0.0000 R=    0.0000 C=    0.0000
 XYZ=   -5.7380   -7.8028    2.6581 Q=    0.4100 A=    0.0000 R=    0.0000 C=    0.0000
 XYZ=   -5.7068   -9.3265    2.0718 Q=    0.4100 A=    0.0000 R=    0.0000 C=    0.0000
 XYZ=    8.8086    7.3292    3.1628 Q=   -0.8200 A=    0.0000 R=    0.0000 C=    0.0000
 XYZ=    9.3685    6.5330    3.3922 Q=    0.4100 A=    0.0000 R=    0.0000 C=    0.0000
 XYZ=    8.1612    7.0845    2.4409 Q=    0.4100 A=    0.0000 R=    0.0000 C=    0.0000
 XYZ=   -1.8018    1.9050   10.8881 Q=   -0.8200 A=    0.0000 R=    0.0000 C=    0.0000
 XYZ=   -2.6947    2.3020   10.6754 Q=    0.4100 A=    0.0000 R=    0.0000 C=    0.0000
 XYZ=   -1.0854    2.4318   10.4305 Q=    0.4100 A=    0.0000 R=    0.0000 C=    0.0000
 XYZ=   -9.7977    2.2291   -3.1312 Q=   -0.8200 A=    0.0000 R=    0.0000 C=    0.0000
 XYZ=  -10.7791    2.4194   -3.1592 Q=    0.4100 A=    0.0000 R=    0.0000 C=    0.0000
 XYZ=   -9.3294    2.9648   -2.6418 Q=    0.4100 A=    0.0000 R=    0.0000 C=    0.0000
 XYZ=   -0.0415    5.3679   10.0695 Q=   -0.8200 A=    0.0000 R=    0.0000 C=    0.0000
 XYZ=    0.0552    6.0111   10.8291 Q=    0.4100 A=    0.0000 R=    0.0000 C=    0.0000
 XYZ=   -0.9793    5.3993    9.7236 Q=    0.4100 A=    0.0000 R=    0.0000 C=    0.0000
 XYZ=   10.0524   -1.0245   -0.9228 Q=   -0.8200 A=    0.0000 R=    0.0000 C=    0.0000
 XYZ=   10.5482   -1.7350   -0.4234 Q=    0.4100 A=    0.0000 R=    0.0000 C=    0.0000
 XYZ=    9.7033   -0.3452   -0.2773 Q=    0.4100 A=    0.0000 R=    0.0000 C=    0.0000
 XYZ=    8.5130   -3.9377   -1.8039 Q=   -0.8200 A=    0.0000 R=    0.0000 C=    0.0000
 XYZ=    9.5009   -4.0725   -1.8814 Q=    0.4100 A=    0.0000 R=    0.0000 C=    0.0000
 XYZ=    8.0494   -4.4451   -2.5303 Q=    0.4100 A=    0.0000 R=    0.0000 C=    0.0000
 XYZ=    9.0178   -0.5680   -2.9953 Q=   -0.8200 A=    0.0000 R=    0.0000 C=    0.0000
 XYZ=    8.7099    0.3828   -2.9618 Q=    0.4100 A=    0.0000 R=    0.0000 C=    0.0000
 XYZ=    9.4204   -0.8192   -2.1151 Q=    0.4100 A=    0.0000 R=    0.0000 C=    0.0000
 XYZ=   -4.0622    4.7169    9.3685 Q=   -0.8200 A=    0.0000 R=    0.0000 C=    0.0000
 XYZ=   -3.1098    4.9553    9.1786 Q=    0.4100 A=    0.0000 R=    0.0000 C=    0.0000
 XYZ=   -4.6108    4.8533    8.5436 Q=    0.4100 A=    0.0000 R=    0.0000 C=    0.0000
 XYZ=   -7.9891    5.7392    4.0442 Q=   -0.8200 A=    0.0000 R=    0.0000 C=    0.0000
 XYZ=   -7.3802    4.9650    4.2174 Q=    0.4100 A=    0.0000 R=    0.0000 C=    0.0000
 XYZ=   -7.5186    6.5912    4.2739 Q=    0.4100 A=    0.0000 R=    0.0000 C=    0.0000
 XYZ=   -6.4436    8.3972    1.4970 Q=   -0.8200 A=    0.0000 R=    0.0000 C=    0.0000
 XYZ=   -7.0645    7.6139    1.5277 Q=    0.4100 A=    0.0000 R=    0.0000 C=    0.0000
 XYZ=   -6.4612    8.8712    2.3774 Q=    0.4100 A=    0.0000 R=    0.0000 C=    0.0000
 XYZ=   -2.4954   -3.7395    9.2903 Q=   -0.8200 A=    0.0000 R=    0.0000 C=    0.0000
 XYZ=   -2.6320   -4.6142    9.7554 Q=    0.4100 A=    0.0000 R=    0.0000 C=    0.0000
 XYZ=   -2.8473   -2.9990    9.8629 Q=    0.4100 A=    0.0000 R=    0.0000 C=    0.0000
 XYZ=   -9.0486    2.4608   -5.4295 Q=   -0.8200 A=    0.0000 R=    0.0000 C=    0.0000
 XYZ=   -9.3138    2.2480   -4.4891 Q=    0.4100 A=    0.0000 R=    0.0000 C=    0.0000
 XYZ=   -9.7338    2.0958   -6.0598 Q=    0.4100 A=    0.0000 R=    0.0000 C=    0.0000
 XYZ=   -5.9395    9.1107   -0.7173 Q=   -0.8200 A=    0.0000 R=    0.0000 C=    0.0000
 XYZ=   -6.6004    9.7503   -1.1099 Q=    0.4100 A=    0.0000 R=    0.0000 C=    0.0000
 XYZ=   -6.2344    8.8488    0.2016 Q=    0.4100 A=    0.0000 R=    0.0000 C=    0.0000
 XYZ=   -2.1539   -6.9728   -8.1468 Q=   -0.8200 A=    0.0000 R=    0.0000 C=    0.0000
 XYZ=   -2.3622   -7.4113   -9.0211 Q=    0.4100 A=    0.0000 R=    0.0000 C=    0.0000
 XYZ=   -2.9668   -6.9876   -7.5645 Q=    0.4100 A=    0.0000 R=    0.0000 C=    0.0000
 XYZ=   -7.4774   -7.8093    0.1121 Q=   -0.8200 A=    0.0000 R=    0.0000 C=    0.0000
 XYZ=   -7.6669   -6.8296    0.1791 Q=    0.4100 A=    0.0000 R=    0.0000 C=    0.0000
 XYZ=   -6.9696   -8.1066    0.9207 Q=    0.4100 A=    0.0000 R=    0.0000 C=    0.0000
 XYZ=    2.1887    0.2002   11.0794 Q=   -0.8200 A=    0.0000 R=    0.0000 C=    0.0000
 XYZ=    1.5644   -0.5285   10.7976 Q=    0.4100 A=    0.0000 R=    0.0000 C=    0.0000
 XYZ=    3.1060    0.0063   10.7314 Q=    0.4100 A=    0.0000 R=    0.0000 C=    0.0000
 XYZ=   10.3651    4.1699   -0.2993 Q=   -0.8200 A=    0.0000 R=    0.0000 C=    0.0000
 XYZ=    9.7010    4.4600    0.3897 Q=    0.4100 A=    0.0000 R=    0.0000 C=    0.0000
 XYZ=   11.1894    4.7313   -0.2249 Q=    0.4100 A=    0.0000 R=    0.0000 C=    0.0000
 XYZ=    0.8566    4.6518  -10.0899 Q=   -0.8200 A=    0.0000 R=    0.0000 C=    0.0000
 XYZ=   -0.0484    4.6783   -9.6654 Q=    0.4100 A=    0.0000 R=    0.0000 C=    0.0000
 XYZ=    1.5381    4.3912   -9.4060 Q=    0.4100 A=    0.0000 R=    0.0000 C=    0.0000
 XYZ=    9.8494    5.1757    3.8379 Q=   -0.8200 A=    0.0000 R=    0.0000 C=    0.0000
 XYZ=    9.6067    4.2068    3.7888 Q=    0.4100 A=    0.0000 R=    0.0000 C=    0.0000
 XYZ=   10.0594    5.4191    4.7848 Q=    0.4100 A=    0.0000 R=    0.0000 C=    0.0000
 XYZ=   -2.0178  -10.5036   -0.7114 Q=   -0.8200 A=    0.0000 R=    0.0000 C=    0.0000
 XYZ=   -1.3123  -11.2059   -0.6157 Q=    0.4100 A=    0.0000 R=    0.0000 C=    0.0000
 XYZ=   -2.5066  -10.6376   -1.5735 Q=    0.4100 A=    0.0000 R=    0.0000 C=    0.0000
 XYZ=   -8.4825   -5.7542    2.7031 Q=   -0.8200 A=    0.0000 R=    0.0000 C=    0.0000
 XYZ=   -8.2169   -5.6827    1.7416 Q=    0.4100 A=    0.0000 R=    0.0000 C=    0.0000
 XYZ=   -8.8946   -6.6501    2.8693 Q=    0.4100 A=    0.0000 R=    0.0000 C=    0.0000
 XYZ=    9.6758    3.7733   -2.5654 Q=   -0.8200 A=    0.0000 R=    0.0000 C=    0.0000
 XYZ=    9.1768    2.9072   -2.5345 Q=    0.4100 A=    0.0000 R=    0.0000 C=    0.0000
 XYZ=    9.8487    4.0917   -1.6333 Q=    0.4100 A=    0.0000 R=    0.0000 C=    0.0000
 XYZ=   -5.6682   -8.2325   -5.4051 Q=   -0.8200 A=    0.0000 R=    0.0000 C=    0.0000
 XYZ=   -5.8520   -7.2716   -5.1980 Q=    0.4100 A=    0.0000 R=    0.0000 C=    0.0000
 XYZ=   -6.5289   -8.7008   -5.6052 Q=    0.4100 A=    0.0000 R=    0.0000 C=    0.0000
 XYZ=   -4.6878   -0.2566  -10.2867 Q=   -0.8200 A=    0.0000 R=    0.0000 C=    0.0000
 XYZ=   -5.5510   -0.7291  -10.1091 Q=    0.4100 A=    0.0000 R=    0.0000 C=    0.0000
 XYZ=   -4.6401   -0.0015  -11.2524 Q=    0.4100 A=    0.0000 R=    0.0000 C=    0.0000
 XYZ=   -4.2668   10.6316   -1.4551 Q=   -0.8200 A=    0.0000 R=    0.0000 C=    0.0000
 XYZ=   -4.7618   11.3237   -1.9805 Q=    0.4100 A=    0.0000 R=    0.0000 C=    0.0000
 XYZ=   -4.9187    9.9877   -1.0546 Q=    0.4100 A=    0.0000 R=    0.0000 C=    0.0000
 XYZ=   -7.9710    1.1134    6.1417 Q=   -0.8200 A=    0.0000 R=    0.0000 C=    0.0000
 XYZ=   -7.7681    0.3040    5.5906 Q=    0.4100 A=    0.0000 R=    0.0000 C=    0.0000
 XYZ=   -7.5064    1.9079    5.7506 Q=    0.4100 A=    0.0000 R=    0.0000 C=    0.0000
 XYZ=    7.7676    7.2068    5.3577 Q=   -0.8200 A=    0.0000 R=    0.0000 C=    0.0000
 XYZ=    8.0877    7.2454    4.4111 Q=    0.4100 A=    0.0000 R=    0.0000 C=    0.0000
 XYZ=    8.1719    7.9597    5.8772 Q=    0.4100 A=    0.0000 R=    0.0000 C=    0.0000
 XYZ=    2.0261   -5.4963    9.1700 Q=   -0.8200 A=    0.0000 R=    0.0000 C=    0.0000
 XYZ=    2.9496   -5.8497    9.3195 Q=    0.4100 A=    0.0000 R=    0.0000 C=    0.0000
 XYZ=    1.7114   -5.0266    9.9949 Q=    0.4100 A=    0.0000 R=    0.0000 C=    0.0000
 XYZ=    4.4988   -0.0117   10.2778 Q=   -0.8200 A=    0.0000 R=    0.0000 C=    0.0000
 XYZ=    5.0589   -0.7525   10.6488 Q=    0.4100 A=    0.0000 R=    0.0000 C=    0.0000
 XYZ=    4.9230    0.8675   10.4947 Q=    0.4100 A=    0.0000 R=    0.0000 C=    0.0000
 XYZ=    6.8631   -7.3744   -2.7235 Q=   -0.8200 A=    0.0000 R=    0.0000 C=    0.0000
 XYZ=    7.5700   -7.7997   -2.1583 Q=    0.4100 A=    0.0000 R=    0.0000 C=    0.0000
 XYZ=    7.2114   -6.5177   -3.1041 Q=    0.4100 A=    0.0000 R=    0.0000 C=    0.0000
 XYZ=   11.0007    2.0524   -0.0103 Q=   -0.8200 A=    0.0000 R=    0.0000 C=    0.0000
 XYZ=   10.2572    1.4374    0.2526 Q=    0.4100 A=    0.0000 R=    0.0000 C=    0.0000
 XYZ=   10.6317    2.9649   -0.1868 Q=    0.4100 A=    0.0000 R=    0.0000 C=    0.0000
 XYZ=    7.9612    7.4946   -2.6053 Q=   -0.8200 A=    0.0000 R=    0.0000 C=    0.0000
 XYZ=    7.0031    7.6032   -2.8704 Q=    0.4100 A=    0.0000 R=    0.0000 C=    0.0000
 XYZ=    8.0463    7.5968   -1.6141 Q=    0.4100 A=    0.0000 R=    0.0000 C=    0.0000
 XYZ=    6.1879    4.9399   -6.8899 Q=   -0.8200 A=    0.0000 R=    0.0000 C=    0.0000
 XYZ=    6.8868    5.6397   -6.7424 Q=    0.4100 A=    0.0000 R=    0.0000 C=    0.0000
 XYZ=    6.5503    4.2286   -7.4923 Q=    0.4100 A=    0.0000 R=    0.0000 C=    0.0000
 XYZ=    8.1660    5.4578   -3.7696 Q=   -0.8200 A=    0.0000 R=    0.0000 C=    0.0000
 XYZ=    8.6340    4.7400   -3.2541 Q=    0.4100 A=    0.0000 R=    0.0000 C=    0.0000
 XYZ=    8.1684    6.3051   -3.2383 Q=    0.4100 A=    0.0000 R=    0.0000 C=    0.0000
 XYZ=   -3.1327   11.1799    0.5592 Q=   -0.8200 A=    0.0000 R=    0.0000 C=    0.0000
 XYZ=   -3.8508   11.4871    1.1836 Q=    0.4100 A=    0.0000 R=    0.0000 C=    0.0000
 XYZ=   -3.5414   10.9147   -0.3141 Q=    0.4100 A=    0.0000 R=    0.0000 C=    0.0000
 XYZ=    0.0912   -7.1244    9.0491 Q=   -0.8200 A=    0.0000 R=    0.0000 C=    0.0000
 XYZ=   -0.4118   -6.9115    8.2114 Q=    0.4100 A=    0.0000 R=    0.0000 C=    0.0000
 XYZ=    0.7713   -6.4115    9.2198 Q=    0.4100 A=    0.0000 R=    0.0000 C=    0.0000
 XYZ=   -1.5492   10.6685   -5.6400 Q=   -0.8200 A=    0.0000 R=    0.0000 C=    0.0000
 XYZ=   -1.6706   11.5039   -5.1038 Q=    0.4100 A=    0.0000 R=    0.0000 C=    0.0000
 XYZ=   -2.2519   10.0041   -5.3855 Q=    0.4100 A=    0.0000 R=    0.0000 C=    0.0000
 XYZ=    3.2908   -7.2720   -8.1616 Q=   -0.8200 A=    0.0000 R=    0.0000 C=    0.0000
 XYZ=    4.1289   -6.8109   -8.4531 Q=    0.4100 A=    0.0000 R=    0.0000 C=    0.0000
 XYZ=    3.2477   -7.2847   -7.1626 Q=    0.4100 A=    0.0000 R=    0.0000 C=    0.0000
 XYZ=   -6.9756   -5.8874    6.2722 Q=   -0.8200 A=    0.0000 R=    0.0000 C=    0.0000
 XYZ=   -6.5979   -5.9998    5.3531 Q=    0.4100 A=    0.0000 R=    0.0000 C=    0.0000
 XYZ=   -7.3318   -4.9586    6.3749 Q=    0.4100 A=    0.0000 R=    0.0000 C=    0.0000
 XYZ=   -2.9219   -1.9781   10.8499 Q=   -0.8200 A=    0.0000 R=    0.0000 C=    0.0000
 XYZ=   -2.1477   -1.3506   10.7671 Q=    0.4100 A=    0.0000 R=    0.0000 C=    0.0000
 XYZ=   -3.7738   -1.4550   10.8748 Q=    0.4100 A=    0.0000 R=    0.0000 C=    0.0000
 XYZ=    3.9424    2.4334   -9.7907 Q=   -0.8200 A=    0.0000 R=    0.0000 C=    0.0000
 XYZ=    4.9414    2.4022   -9.7585 Q=    0.4100 A=    0.0000 R=    0.0000 C=    0.0000
 XYZ=    3.6229    2.0097  -10.6383 Q=    0.4100 A=    0.0000 R=    0.0000 C=    0.0000
 XYZ=   -9.7920   -4.6089   -0.6707 Q=   -0.8200 A=    0.0000 R=    0.0000 C=    0.0000
 XYZ=   -9.9471   -3.9091   -1.3680 Q=    0.4100 A=    0.0000 R=    0.0000 C=    0.0000
 XYZ=  -10.6509   -5.0832   -0.4776 Q=    0.4100 A=    0.0000 R=    0.0000 C=    0.0000
 XYZ=    0.8782   -0.1231  -11.9654 Q=   -0.8200 A=    0.0000 R=    0.0000 C=    0.0000
 XYZ=    1.4705   -0.9080  -12.1479 Q=    0.4100 A=    0.0000 R=    0.0000 C=    0.0000
 XYZ=    0.0460   -0.4334  -11.5058 Q=    0.4100 A=    0.0000 R=    0.0000 C=    0.0000
 XYZ=   -7.6153    3.8518   -9.0445 Q=   -0.8200 A=    0.0000 R=    0.0000 C=    0.0000
 XYZ=   -7.5635    4.6943   -9.5807 Q=    0.4100 A=    0.0000 R=    0.0000 C=    0.0000
 XYZ=   -6.6918    3.5503   -8.8074 Q=    0.4100 A=    0.0000 R=    0.0000 C=    0.0000
 XYZ=   -1.2731   -0.3807   11.3240 Q=   -0.8200 A=    0.0000 R=    0.0000 C=    0.0000
 XYZ=   -1.3510   -0.6092   12.2945 Q=    0.4100 A=    0.0000 R=    0.0000 C=    0.0000
 XYZ=   -1.4272    0.5994   11.1990 Q=    0.4100 A=    0.0000 R=    0.0000 C=    0.0000
 XYZ=    3.3844    3.6824   11.8575 Q=   -0.8200 A=    0.0000 R=    0.0000 C=    0.0000
 XYZ=    2.7218    3.2029   11.2821 Q=    0.4100 A=    0.0000 R=    0.0000 C=    0.0000
 XYZ=    2.9461    3.9552   12.7140 Q=    0.4100 A=    0.0000 R=    0.0000 C=    0.0000
 XYZ=   -4.1187    2.7348   10.6142 Q=   -0.8200 A=    0.0000 R=    0.0000 C=    0.0000
 XYZ=   -4.7080    2.9308   11.3980 Q=    0.4100 A=    0.0000 R=    0.0000 C=    0.0000
 XYZ=   -4.0805    3.5361   10.0172 Q=    0.4100 A=    0.0000 R=    0.0000 C=    0.0000
 XYZ=   -6.5584    7.4892    4.7944 Q=   -0.8200 A=    0.0000 R=    0.0000 C=    0.0000
 XYZ=   -6.5317    8.3844    4.3493 Q=    0.4100 A=    0.0000 R=    0.0000 C=    0.0000
 XYZ=   -6.5976    7.6113    5.7862 Q=    0.4100 A=    0.0000 R=    0.0000 C=    0.0000
 XYZ=   -4.5350  -10.2989    2.7850 Q=   -0.8200 A=    0.0000 R=    0.0000 C=    0.0000
 XYZ=   -5.0744  -11.1082    2.5524 Q=    0.4100 A=    0.0000 R=    0.0000 C=    0.0000
 XYZ=   -3.6646  -10.3259    2.2934 Q=    0.4100 A=    0.0000 R=    0.0000 C=    0.0000
 XYZ=    0.0727    9.4296    9.2698 Q=   -0.8200 A=    0.0000 R=    0.0000 C=    0.0000
 XYZ=    0.5240    9.0745   10.0884 Q=    0.4100 A=    0.0000 R=    0.0000 C=    0.0000
 XYZ=    0.4971    9.0321    8.4562 Q=    0.4100 A=    0.0000 R=    0.0000 C=    0.0000
 XYZ=    6.9812   -0.2221   -8.8779 Q=   -0.8200 A=    0.0000 R=    0.0000 C=    0.0000
 XYZ=    7.3804    0.0134   -7.9918 Q=    0.4100 A=    0.0000 R=    0.0000 C=    0.0000
 XYZ=    6.1004   -0.6742   -8.7370 Q=    0.4100 A=    0.0000 R=    0.0000 C=    0.0000
 XYZ=    6.4752    3.7229    9.6713 Q=   -0.8200 A=    0.0000 R=    0.0000 C=    0.0000
 XYZ=    5.7819    4.3781    9.9715 Q=    0.4100 A=    0.0000 R=    0.0000 C=    0.0000
 XYZ=    6.3235    2.8454   10.1263 Q=    0.4100 A=    0.0000 R=    0.0000 C=    0.0000
 XYZ=   -4.0777   10.1994    3.5356 Q=   -0.8200 A=    0.0000 R=    0.0000 C=    0.0000
 XYZ=   -3.4375   10.5644    4.2116 Q=    0.4100 A=    0.0000 R=    0.0000 C=    0.0000
 XYZ=   -4.3356   10.9236    2.8960 Q=    0.4100 A=    0.0000 R=    0.0000 C=    0.0000
 XYZ=   10.2276   -4.3552    4.8810 Q=   -0.8200 A=    0.0000 R=    0.0000 C=    0.0000
 XYZ=    9.2348   -4.2848    4.9782 Q=    0.4100 A=    0.0000 R=    0.0000 C=    0.0000
 XYZ=   10.5908   -4.9540    5.5949 Q=    0.4100 A=    0.0000 R=    0.0000 C=    0.0000
 XYZ=    4.2725   -2.1241  -10.8378 Q=   -0.8200 A=    0.0000 R=    0.0000 C=    0.0000
 XYZ=    4.5005   -1.6210  -10.0041 Q=    0.4100 A=    0.0000 R=    0.0000 C=    0.0000
 XYZ=    4.9788   -2.8088  -11.0175 Q=    0.4100 A=    0.0000 R=    0.0000 C=    0.0000
 XYZ=  -11.6687   -0.1651   -3.2744 Q=   -0.8200 A=    0.0000 R=    0.0000 C=    0.0000
 XYZ=  -11.9118    0.7906   -3.4408 Q=    0.4100 A=    0.0000 R=    0.0000 C=    0.0000
 XYZ=  -10.8648   -0.2060   -2.6811 Q=    0.4100 A=    0.0000 R=    0.0000 C=    0.0000
 XYZ=    4.9055    5.0391   10.7420 Q=   -0.8200 A=    0.0000 R=    0.0000 C=    0.0000
 XYZ=    4.1237    4.5135   11.0773 Q=    0.4100 A=    0.0000 R=    0.0000 C=    0.0000
 XYZ=    4.5852    5.7509   10.1169 Q=    0.4100 A=    0.0000 R=    0.0000 C=    0.0000
 XYZ=   -1.4235   -9.3208   -7.2861 Q=   -0.8200 A=    0.0000 R=    0.0000 C=    0.0000
 XYZ=   -1.5034   -8.3491   -7.5081 Q=    0.4100 A=    0.0000 R=    0.0000 C=    0.0000
 XYZ=   -1.5390   -9.8634   -8.1181 Q=    0.4100 A=    0.0000 R=    0.0000 C=    0.0000
 XYZ=   -6.8401    1.8597    8.1047 Q=   -0.8200 A=    0.0000 R=    0.0000 C=    0.0000
 XYZ=   -7.3178    1.3453    7.3925 Q=    0.4100 A=    0.0000 R=    0.0000 C=    0.0000
 XYZ=   -6.3791    1.2233    8.7231 Q=    0.4100 A=    0.0000 R=    0.0000 C=    0.0000
 XYZ=    4.9557   -5.4979   -9.1467 Q=   -0.8200 A=    0.0000 R=    0.0000 C=    0.0000
 XYZ=    5.7123   -5.3390   -9.7810 Q=    0.4100 A=    0.0000 R=    0.0000 C=    0.0000
 XYZ=    5.0195   -4.8545   -8.3839 Q=    0.4100 A=    0.0000 R=    0.0000 C=    0.0000
 XYZ=   -9.7016   -3.8194    3.3192 Q=   -0.8200 A=    0.0000 R=    0.0000 C=    0.0000
 XYZ=   -9.1931   -4.6071    2.9712 Q=    0.4100 A=    0.0000 R=    0.0000 C=    0.0000
 XYZ=  -10.1808   -4.0765    4.1584 Q=    0.4100 A=    0.0000 R=    0.0000 C=    0.0000
 XYZ=   -9.3232    3.8929   -7.4099 Q=   -0.8200 A=    0.0000 R=    0.0000 C=    0.0000
 XYZ=   -8.5927    3.9137   -8.0926 Q=    0.4100 A=    0.0000 R=    0.0000 C=    0.0000
 XYZ=   -8.9499    3.5946   -6.5314 Q=    0.4100 A=    0.0000 R=    0.0000 C=    0.0000
 XYZ=   -4.7823   -6.4792    7.1368 Q=   -0.8200 A=    0.0000 R=    0.0000 C=    0.0000
 XYZ=   -4.5302   -7.0684    7.9045 Q=    0.4100 A=    0.0000 R=    0.0000 C=    0.0000
 XYZ=   -5.7734   -6.3456    7.1307 Q=    0.4100 A=    0.0000 R=    0.0000 C=    0.0000
 XYZ=  -10.3166    3.8436    1.3668 Q=   -0.8200 A=    0.0000 R=    0.0000 C=    0.0000
 XYZ=  -11.2684    3.9908    1.0974 Q=    0.4100 A=    0.0000 R=    0.0000 C=    0.0000
 XYZ=  -10.1026    2.8682    1.3148 Q=    0.4100 A=    0.0000 R=    0.0000 C=    0.0000
 XYZ=    8.9163    1.4489    7.8286 Q=   -0.8200 A=    0.0000 R=    0.0000 C=    0.0000
 XYZ=    9.1930    1.3489    8.7844 Q=    0.4100 A=    0.0000 R=    0.0000 C=    0.0000
 XYZ=    9.1819    2.3545    7.4977 Q=    0.4100 A=    0.0000 R=    0.0000 C=    0.0000
 XYZ=    3.3571   12.1710    1.2260 Q=   -0.8200 A=    0.0000 R=    0.0000 C=    0.0000
 XYZ=    2.4890   11.8331    1.5898 Q=    0.4100 A=    0.0000 R=    0.0000 C=    0.0000
 XYZ=    3.3708   13.1699    1.2703 Q=    0.4100 A=    0.0000 R=    0.0000 C=    0.0000
 XYZ=    9.1518    4.1234    7.1620 Q=   -0.8200 A=    0.0000 R=    0.0000 C=    0.0000
 XYZ=    9.5558    4.8998    6.6782 Q=    0.4100 A=    0.0000 R=    0.0000 C=    0.0000
 XYZ=    8.8649    4.4125    8.0753 Q=    0.4100 A=    0.0000 R=    0.0000 C=    0.0000
 XYZ=   -1.9817    9.6567    8.2495 Q=   -0.8200 A=    0.0000 R=    0.0000 C=    0.0000
 XYZ=   -2.4872    8.7943    8.2218 Q=    0.4100 A=    0.0000 R=    0.0000 C=    0.0000
 XYZ=   -1.1162    9.5204    8.7314 Q=    0.4100 A=    0.0000 R=    0.0000 C=    0.0000
 XYZ=   -4.6130   -6.6344   -9.5453 Q=   -0.8200 A=    0.0000 R=    0.0000 C=    0.0000
 XYZ=   -3.9259   -7.2033   -9.9974 Q=    0.4100 A=    0.0000 R=    0.0000 C=    0.0000
 XYZ=   -4.5613   -6.7721   -8.5562 Q=    0.4100 A=    0.0000 R=    0.0000 C=    0.0000
 XYZ=   -6.6142   -1.6781  -10.0372 Q=   -0.8200 A=    0.0000 R=    0.0000 C=    0.0000
 XYZ=   -7.4068   -1.0720  -10.1033 Q=    0.4100 A=    0.0000 R=    0.0000 C=    0.0000
 XYZ=   -6.7125   -2.4279  -10.6915 Q=    0.4100 A=    0.0000 R=    0.0000 C=    0.0000
 XYZ=   -5.0316   -9.6814    4.9806 Q=   -0.8200 A=    0.0000 R=    0.0000 C=    0.0000
 XYZ=   -4.7713  -10.1193    4.1200 Q=    0.4100 A=    0.0000 R=    0.0000 C=    0.0000
 XYZ=   -4.3814   -8.9520    5.1934 Q=    0.4100 A=    0.0000 R=    0.0000 C=    0.0000
 XYZ=   -6.2276    9.5037    3.7061 Q=   -0.8200 A=    0.0000 R=    0.0000 C=    0.0000
 XYZ=   -6.7517   10.3082    3.9854 Q=    0.4100 A=    0.0000 R=    0.0000 C=    0.0000
 XYZ=   -5.2534    9.7290    3.6916 Q=    0.4100 A=    0.0000 R=    0.0000 C=    0.0000
 XYZ=   -2.3703    2.9240  -12.3457 Q=   -0.8200 A=    0.0000 R=    0.0000 C=    0.0000
 XYZ=   -2.2478    3.0182  -11.3577 Q=    0.4100 A=    0.0000 R=    0.0000 C=    0.0000
 XYZ=   -2.3629    1.9546  -12.5915 Q=    0.4100 A=    0.0000 R=    0.0000 C=    0.0000
 XYZ=   -5.6947    1.0707    9.9084 Q=   -0.8200 A=    0.0000 R=    0.0000 C=    0.0000
 XYZ=   -4.9723    1.7525   10.0241 Q=    0.4100 A=    0.0000 R=    0.0000 C=    0.0000
 XYZ=   -6.3309    1.1253   10.6781 Q=    0.4100 A=    0.0000 R=    0.0000 C=    0.0000
 XYZ=  -11.7896   -1.7857    0.3907 Q=   -0.8200 A=    0.0000 R=    0.0000 C=    0.0000
 XYZ=  -10.9073   -1.3548    0.2010 Q=    0.4100 A=    0.0000 R=    0.0000 C=    0.0000
 XYZ=  -11.6415   -2.6533    0.8654 Q=    0.4100 A=    0.0000 R=    0.0000 C=    0.0000
 XYZ=   -5.4890   -9.8403   -3.5321 Q=   -0.8200 A=    0.0000 R=    0.0000 C=    0.0000
 XYZ=   -6.3365  -10.3711   -3.5449 Q=    0.4100 A=    0.0000 R=    0.0000 C=    0.0000
 XYZ=   -5.4458   -9.2618   -4.3466 Q=    0.4100 A=    0.0000 R=    0.0000 C=    0.0000
 XYZ=    1.5759   -7.3150   -9.7152 Q=   -0.8200 A=    0.0000 R=    0.0000 C=    0.0000
 XYZ=    0.8893   -6.6195   -9.5030 Q=    0.4100 A=    0.0000 R=    0.0000 C=    0.0000
 XYZ=    2.3062   -7.2814   -9.0327 Q=    0.4100 A=    0.0000 R=    0.0000 C=    0.0000
 XYZ=    1.0092   -3.9085  -11.0993 Q=   -0.8200 A=    0.0000 R=    0.0000 C=    0.0000
 XYZ=    1.4298   -3.0788  -11.4664 Q=    0.4100 A=    0.0000 R=    0.0000 C=    0.0000
 XYZ=    1.6861   -4.6443  -11.0788 Q=    0.4100 A=    0.0000 R=    0.0000 C=    0.0000
 XYZ=    8.0472    0.5891   -6.7481 Q=   -0.8200 A=    0.0000 R=    0.0000 C=    0.0000
 XYZ=    8.5820    1.4186   -6.9097 Q=    0.4100 A=    0.0000 R=    0.0000 C=    0.0000
 XYZ=    8.6656   -0.1780   -6.5769 Q=    0.4100 A=    0.0000 R=    0.0000 C=    0.0000
 XYZ=   11.1811   -2.9762    0.3064 Q=   -0.8200 A=    0.0000 R=    0.0000 C=    0.0000
 XYZ=   10.4838   -3.5525    0.7327 Q=    0.4100 A=    0.0000 R=    0.0000 C=    0.0000
 XYZ=   11.8979   -3.5539   -0.0841 Q=    0.4100 A=    0.0000 R=    0.0000 C=    0.0000
 XYZ=   -0.9256   -2.9435  -12.0313 Q=   -0.8200 A=    0.0000 R=    0.0000 C=    0.0000
 XYZ=   -0.1637   -3.3645  -11.5391 Q=    0.4100 A=    0.0000 R=    0.0000 C=    0.0000
 XYZ=   -0.7774   -3.0349  -13.0161 Q=    0.4100 A=    0.0000 R=    0.0000 C=    0.0000
 XYZ=   -4.3565   10.8003   -6.2614 Q=   -0.8200 A=    0.0000 R=    0.0000 C=    0.0000
 XYZ=   -3.9362   10.0432   -5.7610 Q=    0.4100 A=    0.0000 R=    0.0000 C=    0.0000
 XYZ=   -3.6785   11.2163   -6.8674 Q=    0.4100 A=    0.0000 R=    0.0000 C=    0.0000
 XYZ=    9.9494    6.0344    6.0987 Q=   -0.8200 A=    0.0000 R=    0.0000 C=    0.0000
 XYZ=    9.0784    6.5158    6.0008 Q=    0.4100 A=    0.0000 R=    0.0000 C=    0.0000
 XYZ=   10.5751    6.5864    6.6499 Q=    0.4100 A=    0.0000 R=    0.0000 C=    0.0000
 XYZ=    0.1014   13.1477   -1.2520 Q=   -0.8200 A=    0.0000 R=    0.0000 C=    0.0000
 XYZ=    0.4969   12.2474   -1.0703 Q=    0.4100 A=    0.0000 R=    0.0000 C=    0.0000
 XYZ=   -0.7861   13.2199   -0.7968 Q=    0.4100 A=    0.0000 R=    0.0000 C=    0.0000
 XYZ=   -3.5193  -11.0352   -2.6994 Q=   -0.8200 A=    0.0000 R=    0.0000 C=    0.0000
 XYZ=   -3.0938  -11.3947   -3.5299 Q=    0.4100 A=    0.0000 R=    0.0000 C=    0.0000
 XYZ=   -4.3690  -10.5646   -2.9371 Q=    0.4100 A=    0.0000 R=    0.0000 C=    0.0000
 XYZ=    8.5998   -8.0226   -1.1153 Q=   -0.8200 A=    0.0000 R=    0.0000 C=    0.0000
 XYZ=    8.2060   -7.5157   -0.3486 Q=    0.4100 A=    0.0000 R=    0.0000 C=    0.0000
 XYZ=    9.1330   -8.7934   -0.7665 Q=    0.4100 A=    0.0000 R=    0.0000 C=    0.0000
 XYZ=   -1.1675   11.3421    6.5989 Q=   -0.8200 A=    0.0000 R=    0.0000 C=    0.0000
 XYZ=   -0.2533   10.9799    6.4168 Q=    0.4100 A=    0.0000 R=    0.0000 C=    0.0000
 XYZ=   -1.6571   10.7197    7.2096 Q=    0.4100 A=    0.0000 R=    0.0000 C=    0.0000
 XYZ=    3.1481    7.7097   11.0967 Q=   -0.8200 A=    0.0000 R=    0.0000 C=    0.0000
 XYZ=    2.2897    8.2063   10.9675 Q=    0.4100 A=    0.0000 R=    0.0000 C=    0.0000
 XYZ=    3.3647    7.1969   10.2660 Q=    0.4100 A=    0.0000 R=    0.0000 C=    0.0000
 XYZ=    7.2607   10.7727    3.3225 Q=   -0.8200 A=    0.0000 R=    0.0000 C=    0.0000
 XYZ=    6.7423   10.1856    3.9442 Q=    0.4100 A=    0.0000 R=    0.0000 C=    0.0000
 XYZ=    6.6282   11.3378    2.7927 Q=    0.4100 A=    0.0000 R=    0.0000 C=    0.0000
 XYZ=    5.8083    1.7490   10.8903 Q=   -0.8200 A=    0.0000 R=    0.0000 C=    0.0000
 XYZ=    6.7735    1.6123   11.1131 Q=    0.4100 A=    0.0000 R=    0.0000 C=    0.0000
 XYZ=    5.2865    1.8781   11.7336 Q=    0.4100 A=    0.0000 R=    0.0000 C=    0.0000
 XYZ=   -2.3044    0.5891  -12.8391 Q=   -0.8200 A=    0.0000 R=    0.0000 C=    0.0000
 XYZ=   -1.8411    0.0546  -12.1322 Q=    0.4100 A=    0.0000 R=    0.0000 C=    0.0000
 XYZ=   -3.2931    0.4632  -12.7579 Q=    0.4100 A=    0.0000 R=    0.0000 C=    0.0000
 XYZ=   -0.4126   13.0604    1.9243 Q=   -0.8200 A=    0.0000 R=    0.0000 C=    0.0000
 XYZ=   -1.0445   13.2352    1.1692 Q=    0.4100 A=    0.0000 R=    0.0000 C=    0.0000
 XYZ=    0.1538   12.2652    1.7077 Q=    0.4100 A=    0.0000 R=    0.0000 C=    0.0000
 XYZ=    7.3452    6.9921    8.1276 Q=   -0.8200 A=    0.0000 R=    0.0000 C=    0.0000
 XYZ=    7.7403    6.2126    8.6138 Q=    0.4100 A=    0.0000 R=    0.0000 C=    0.0000
 XYZ=    8.0793    7.5818    7.7910 Q=    0.4100 A=    0.0000 R=    0.0000 C=    0.0000
[...]
    40  H    0.000002   0.000262   0.000000   0.000000   0.000000   0.000000
    41  H    0.000020  -0.001068   0.000000   0.000000   0.000000   0.000000
    42  O    0.000000   0.000000  -0.010247   0.001007   0.000163  -0.002384
    43  H    0.000000   0.000000   0.000632  -0.000273  -0.000005  -0.000407
    44  H    0.000000   0.000000  -0.000267  -0.000090  -0.000002   0.000066
    45  O    0.000000   0.000000   0.000089   0.000139   0.000563   0.000004
    46  H    0.000000   0.000000   0.000042   0.000000   0.000000   0.000000
    47  H    0.000000   0.000000  -0.000362  -0.000002  -0.000014   0.000000
    48  O    0.000000   0.000000   0.000027   0.000024   0.000000   0.000172
    49  H    0.000000   0.000000   0.000001   0.000000   0.000000   0.000139
    50  H    0.000000   0.000000   0.000000   0.000000   0.000000  -0.000018
              31         32         33         34         35         36
     1  C    0.000001   0.000007  -0.003089  -0.000002   0.000380  -0.000244
     2  H    0.000000   0.000000  -0.000004   0.000000   0.000000  -0.000001
     3  H    0.000000   0.000000   0.000003   0.000000   0.000000   0.000000
     4  C   -0.000029  -0.000055   0.045744   0.007756  -0.002934   0.000247
     5  H    0.000000   0.000000  -0.000025   0.000002   0.000002   0.000000
     6  C   -0.000115  -0.000043  -0.039058   0.001457   0.001236  -0.000392
     7  H    0.000000   0.000000  -0.019051   0.000838   0.000942   0.000001
     8  O   -0.000044   0.000012   0.002455  -0.000931  -0.000213   0.000411
     9  O    0.000006  -0.000002  -0.001177  -0.000504  -0.000121  -0.008278
    10  H    0.000000   0.000000   0.000063   0.000007   0.000001   0.000897
    11  H    0.000000   0.000000  -0.000009   0.000012   0.000002  -0.000484
    12  O    0.003252  -0.001163  -0.001808  -0.000031   0.001892   0.000020
    13  H   -0.002337   0.001978   0.000087   0.000000   0.000043   0.000000
    14  H   -0.000418  -0.000150   0.000135  -0.000002  -0.000063   0.000024
    15  O   -0.000014   0.000272  -0.000062   0.000001  -0.000005  -0.006390
    16  H    0.000003  -0.000008  -0.000001   0.000000   0.000000   0.000415
    17  H    0.000002   0.000001   0.000031   0.000001   0.000001   0.000413
    18  O    0.000049   0.000011  -0.072478  -0.001317   0.057882   0.000000
    19  H   -0.000002  -0.000003   0.001604  -0.000044  -0.002724   0.000000
    20  H   -0.000317  -0.000101   0.003420  -0.000196  -0.000626   0.000000
    21  O    0.000000   0.000000   0.000000   0.000000   0.000000   0.000000
    22  H    0.000000   0.000000   0.000000   0.000000   0.000000   0.000000
    23  H    0.000000   0.000000   0.000000   0.000000   0.000000   0.000000
    24  O    0.000000   0.000000   0.000000   0.000000   0.000000   0.000000
    25  H    0.000000   0.000000   0.000000   0.000000   0.000000   0.000000
    26  H    0.000000   0.000000   0.000000   0.000000   0.000000   0.000000
    27  O   -0.000087  -0.000016   0.000961  -0.000712   0.001925   0.000011
    28  H    0.000001   0.000007   0.000403  -0.000192  -0.001084   0.000001
    29  H    0.000000   0.000000   0.003084  -0.001560  -0.000538  -0.000001
    30  O    0.199115   0.204152   0.000215  -0.000008   0.000014   0.000000
    31  H    0.185849  -0.005845  -0.000002   0.000000   0.000000   0.000000
    32  H   -0.005845   0.151966  -0.000001   0.000000   0.000000   0.000000
    33  O   -0.000002  -0.000001   9.053416   0.186123   0.120716  -0.000003
    34  H    0.000000   0.000000   0.186123   0.205599  -0.000034   0.000000
    35  H    0.000000   0.000000   0.120716  -0.000034   0.175501   0.000000
    36  O    0.000000   0.000000  -0.000003   0.000000   0.000000   8.820639
    37  H    0.000000   0.000000   0.000001   0.000000   0.000000   0.150204
    38  H    0.000000   0.000000   0.000000   0.000000   0.000000   0.212490
    39  O    0.000000   0.000000   0.000000   0.000000   0.000000   0.000000
    40  H    0.000000   0.000000   0.000000   0.000000   0.000000   0.000000
    41  H    0.000000   0.000000   0.000000   0.000000   0.000000   0.000000
    42  O    0.001427   0.000006   0.000000  -0.000001   0.000001  -0.000069
    43  H   -0.000042  -0.000002   0.000001   0.000000   0.000000   0.000254
    44  H   -0.000103  -0.000004   0.000000   0.000000   0.000000   0.000001
    45  O    0.000000   0.000000  -0.000181  -0.000088   0.000009  -0.010237
    46  H    0.000000   0.000000   0.000002   0.000000   0.000000  -0.000616
    47  H    0.000000   0.000000   0.000000   0.000000   0.000000  -0.000595
    48  O   -0.000085  -0.000034  -0.000002   0.000000   0.000000  -0.000381
    49  H   -0.000002  -0.000009   0.000000   0.000000   0.000000   0.000001
    50  H    0.000000   0.000001   0.000000   0.000000   0.000000   0.000013
              37         38         39         40         41         42
     1  C    0.000297   0.000003   0.000010  -0.000139   0.000152  -0.000024
     2  H   -0.000002   0.000000   0.000000   0.000000   0.000000   0.000000
     3  H    0.000000   0.000000   0.000018  -0.000001   0.000000   0.000000
     4  C   -0.000128  -0.000021  -0.001659   0.000228   0.000050   0.000167
     5  H    0.000000   0.000000   0.000045  -0.000006  -0.000002   0.000000
     6  C    0.000002   0.000081   0.001014   0.000066  -0.000334   0.000971
     7  H   -0.000001   0.000000   0.000000   0.000000   0.000000  -0.000002
     8  O    0.001375  -0.000008   0.000004   0.000000   0.000000  -0.000406
     9  O    0.054150  -0.001068   0.000000   0.000000   0.000000  -0.005692
    10  H   -0.001346   0.000021   0.000000   0.000000   0.000000  -0.000006
    11  H    0.004534   0.000191   0.000000   0.000000   0.000000   0.000246
    12  O   -0.000107  -0.000001   0.000000   0.000000   0.000000  -0.020945
    13  H    0.000000   0.000000   0.000000   0.000000   0.000000  -0.001889
    14  H   -0.000001   0.000000   0.000000   0.000000   0.000000  -0.006150
    15  O   -0.000112  -0.000026   0.000000   0.000000   0.000000  -0.017305
    16  H    0.000008  -0.000008   0.000000   0.000000   0.000000  -0.000245
    17  H    0.000065  -0.000036   0.000000   0.000000   0.000000  -0.000021
    18  O    0.000000   0.000000   0.000000   0.000000   0.000000  -0.000237
    19  H    0.000000   0.000000   0.000000   0.000000   0.000000  -0.000004
    20  H    0.000000   0.000000   0.000000   0.000000   0.000000   0.000448
    21  O    0.000000   0.000000   0.000013   0.000000   0.000000   0.000000
    22  H    0.000000   0.000000  -0.000001   0.000000   0.000000   0.000000
    23  H    0.000000   0.000000   0.000002   0.000000   0.000000   0.000000
    24  O    0.000000   0.000000  -0.026068   0.000408  -0.000279   0.000000
    25  H    0.000000   0.000000   0.000340   0.000002   0.000020   0.000000
    26  H    0.000000   0.000000   0.011865   0.000262  -0.001068   0.000000
    27  O    0.000013  -0.000001   0.000000   0.000000   0.000000  -0.010247
    28  H    0.000001   0.000000   0.000000   0.000000   0.000000   0.001007
    29  H    0.000000   0.000000   0.000000   0.000000   0.000000   0.000163
    30  O    0.000000   0.000000   0.000000   0.000000   0.000000  -0.002384
    31  H    0.000000   0.000000   0.000000   0.000000   0.000000   0.001427
    32  H    0.000000   0.000000   0.000000   0.000000   0.000000   0.000006
    33  O    0.000001   0.000000   0.000000   0.000000   0.000000   0.000000
    34  H    0.000000   0.000000   0.000000   0.000000   0.000000  -0.000001
    35  H    0.000000   0.000000   0.000000   0.000000   0.000000   0.000001
    36  O    0.150204   0.212490   0.000000   0.000000   0.000000  -0.000069
    37  H    0.225845  -0.006301   0.000000   0.000000   0.000000   0.000042
    38  H   -0.006301   0.193945   0.000000   0.000000   0.000000   0.000016
    39  O    0.000000   0.000000   8.800849   0.218022   0.210407   0.000000
    40  H    0.000000   0.000000   0.218022   0.196471  -0.007435   0.000000
    41  H    0.000000   0.000000   0.210407  -0.007435   0.181353   0.000000
    42  O    0.000042   0.000016   0.000000   0.000000   0.000000   9.039725
    43  H   -0.000100  -0.000011   0.000000   0.000000   0.000000   0.070652
    44  H   -0.000001   0.000000   0.000000   0.000000   0.000000   0.193072
    45  O    0.003938   0.000496   0.000000   0.000000   0.000000   0.000054
    46  H   -0.000064  -0.000013   0.000000   0.000000   0.000000  -0.000002
    47  H   -0.000209   0.000238   0.000000   0.000000   0.000000   0.000044
    48  O    0.000049   0.000000   0.000000   0.000000   0.000000  -0.008485
    49  H    0.000000   0.000000   0.000000   0.000000   0.000000  -0.000023
    50  H   -0.000001   0.000000   0.000000   0.000000   0.000000   0.000021
              43         44         45         46         47         48
     1  C   -0.000036   0.000002   0.000755   0.000002  -0.000003  -0.000019
     2  H    0.000000   0.000000   0.000002   0.000000   0.000000   0.000004
     3  H    0.000000   0.000000   0.000000   0.000000   0.000000   0.000000
     4  C   -0.000081   0.000027  -0.000309   0.000109  -0.000042  -0.000433
     5  H    0.000000   0.000000   0.000002   0.000000   0.000000   0.000000
     6  C    0.000463   0.000124   0.000921  -0.000138   0.000079   0.000706
     7  H    0.000000   0.000000   0.000045   0.000000   0.000000   0.000005
     8  O    0.000207  -0.000025   0.003234  -0.000036  -0.000007   0.001834
     9  O    0.000908   0.000143  -0.090440  -0.000948  -0.002126  -0.001760
    10  H    0.000050   0.000000   0.001809  -0.000077   0.000049   0.000046
    11  H   -0.000048  -0.000001   0.047272  -0.000166  -0.002032   0.000042
    12  O    0.005550   0.010035  -0.000382   0.000004   0.000009  -0.004158
    13  H   -0.000350  -0.000188   0.000008   0.000000   0.000000   0.000084
    14  H   -0.001591  -0.000832  -0.000122   0.000000  -0.000001   0.002403
    15  O    0.003121  -0.004436  -0.002636  -0.000010   0.000229  -0.081806
    16  H    0.000957   0.000076   0.000098   0.000000   0.000000   0.016034
    17  H    0.006008   0.000125   0.001799   0.000027   0.000062   0.001860
    18  O    0.000021   0.000089  -0.000026   0.000000  -0.000001  -0.000020
    19  H    0.000000   0.000000   0.000000   0.000000   0.000000   0.000000
    20  H    0.000059   0.000032  -0.000004   0.000000   0.000000   0.000046
    21  O    0.000000   0.000000   0.000000   0.000000   0.000000  -0.000117
    22  H    0.000000   0.000000   0.000000   0.000000   0.000000  -0.000001
    23  H    0.000000   0.000000   0.000000   0.000000   0.000000  -0.000005
    24  O    0.000000   0.000000   0.000000   0.000000   0.000000   0.000000
    25  H    0.000000   0.000000   0.000000   0.000000   0.000000   0.000000
    26  H    0.000000   0.000000   0.000000   0.000000   0.000000   0.000000
    27  O    0.000632  -0.000267   0.000089   0.000042  -0.000362   0.000027
    28  H   -0.000273  -0.000090   0.000139   0.000000  -0.000002   0.000024
    29  H   -0.000005  -0.000002   0.000563   0.000000  -0.000014   0.000000
    30  O   -0.000407   0.000066   0.000004   0.000000   0.000000   0.000172
    31  H   -0.000042  -0.000103   0.000000   0.000000   0.000000  -0.000085
    32  H   -0.000002  -0.000004   0.000000   0.000000   0.000000  -0.000034
    33  O    0.000001   0.000000  -0.000181   0.000002   0.000000  -0.000002
    34  H    0.000000   0.000000  -0.000088   0.000000   0.000000   0.000000
    35  H    0.000000   0.000000   0.000009   0.000000   0.000000   0.000000
    36  O    0.000254   0.000001  -0.010237  -0.000616  -0.000595  -0.000381
    37  H   -0.000100  -0.000001   0.003938  -0.000064  -0.000209   0.000049
    38  H   -0.000011   0.000000   0.000496  -0.000013   0.000238   0.000000
    39  O    0.000000   0.000000   0.000000   0.000000   0.000000   0.000000
    40  H    0.000000   0.000000   0.000000   0.000000   0.000000   0.000000
    41  H    0.000000   0.000000   0.000000   0.000000   0.000000   0.000000
    42  O    0.070652   0.193072   0.000054  -0.000002   0.000044  -0.008485
    43  H    0.238721  -0.000602  -0.000186   0.000000  -0.000010   0.002984
    44  H   -0.000602   0.213855  -0.000005   0.000000   0.000000   0.000244
    45  O   -0.000186  -0.000005   8.952000   0.180784   0.199230   0.000015
    46  H    0.000000   0.000000   0.180784   0.130289  -0.004918   0.000000
    47  H   -0.000010   0.000000   0.199230  -0.004918   0.163714   0.000000
    48  O    0.002984   0.000244   0.000015   0.000000   0.000000   8.865135
    49  H    0.000013   0.000001   0.000000   0.000000   0.000000   0.220205
    50  H   -0.000004   0.000000   0.000000   0.000000   0.000000   0.193717
              49         50
     1  C   -0.000042  -0.000002
     2  H   -0.000001   0.000000
     3  H    0.000000   0.000000
     4  C    0.000136   0.000007
     5  H    0.000000   0.000000
     6  C   -0.000224  -0.000006
     7  H    0.000000   0.000000
     8  O    0.000005  -0.000011
     9  O   -0.000011   0.000031
    10  H    0.000000  -0.000001
    11  H    0.000000   0.000000
    12  O    0.000621  -0.000029
    13  H   -0.000010   0.000000
    14  H   -0.000011   0.000017
    15  O   -0.000715   0.001454
    16  H   -0.000218   0.000280
    17  H   -0.000005  -0.000050
    18  O    0.000002   0.000000
    19  H    0.000000   0.000000
    20  H    0.000000   0.000000
    21  O    0.000012   0.000003
    22  H    0.000000   0.000000
    23  H    0.000000   0.000000
    24  O    0.000000   0.000000
    25  H    0.000000   0.000000
    26  H    0.000000   0.000000
    27  O    0.000001   0.000000
    28  H    0.000000   0.000000
    29  H    0.000000   0.000000
    30  O    0.000139  -0.000018
    31  H   -0.000002   0.000000
    32  H   -0.000009   0.000001
    33  O    0.000000   0.000000
    34  H    0.000000   0.000000
    35  H    0.000000   0.000000
    36  O    0.000001   0.000013
    37  H    0.000000  -0.000001
    38  H    0.000000   0.000000
    39  O    0.000000   0.000000
    40  H    0.000000   0.000000
    41  H    0.000000   0.000000
    42  O   -0.000023   0.000021
    43  H    0.000013  -0.000004
    44  H    0.000001   0.000000
    45  O    0.000000   0.000000
    46  H    0.000000   0.000000
    47  H    0.000000   0.000000
    48  O    0.220205   0.193717
    49  H    0.197781  -0.003060
    50  H   -0.003060   0.149033
 Mulliken charges:
               1
     1  C   -0.543816
     2  H    0.240667
     3  H    0.236626
     4  C   -0.181446
     5  H    0.239397
     6  C    0.102722
     7  H    0.234176
     8  O   -0.339132
     9  O   -1.180099
    10  H    0.520084
    11  H    0.610727
    12  O   -1.270111
    13  H    0.562307
    14  H    0.692846
    15  O   -1.426989
    16  H    0.658365
    17  H    0.696115
    18  O   -1.141993
    19  H    0.581332
    20  H    0.570929
    21  O   -1.095153
    22  H    0.624529
    23  H    0.485943
    24  O   -1.151245
    25  H    0.613658
    26  H    0.540644
    27  O   -1.267412
    28  H    0.614067
    29  H    0.621741
    30  O   -1.209587
    31  H    0.619738
    32  H    0.649022
    33  O   -1.281513
    34  H    0.603825
    35  H    0.647797
    36  O   -1.158352
    37  H    0.567852
    38  H    0.600015
    39  O   -1.214861
    40  H    0.592121
    41  H    0.617136
    42  O   -1.233923
    43  H    0.673151
    44  H    0.588667
    45  O   -1.288650
    46  H    0.695733
    47  H    0.646666
    48  O   -1.208330
    49  H    0.585413
    50  H    0.658603
 Sum of Mulliken charges =   0.00000
 Mulliken charges with hydrogens summed into heavy atoms:
               1
     1  C   -0.066524
     4  C    0.057952
     6  C    0.336898
     8  O   -0.339132
     9  O   -0.049288
    12  O   -0.014958
    15  O   -0.072509
    18  O    0.010268
    21  O    0.015319
    24  O    0.003057
    27  O   -0.031604
    30  O    0.059174
    33  O   -0.029891
    36  O    0.009515
    39  O   -0.005605
    42  O    0.027895
    45  O    0.053750
    48  O    0.035686
 Electronic spatial extent (au):  <R**2>=          11080.2594
 Charge=              0.0000 electrons
 Dipole moment (field-independent basis, Debye):
    X=              9.1140    Y=             -3.2345    Z=              0.1618  Tot=              9.6723
 Quadrupole moment (field-independent basis, Debye-Ang):
   XX=           -106.7177   YY=           -153.7341   ZZ=            -58.0531
   XY=             24.5867   XZ=             11.5095   YZ=            -12.1513
 Traceless Quadrupole moment (field-independent basis, Debye-Ang):
   XX=             -0.5494   YY=            -47.5658   ZZ=             48.1152
   XY=             24.5867   XZ=             11.5095   YZ=            -12.1513
 Octapole moment (field-independent basis, Debye-Ang**2):
  XXX=            349.9418  YYY=            -75.2466  ZZZ=             82.3507  XYY=             65.7374
  XXY=             40.7167  XXZ=           -186.5493  XZZ=            -97.3798  YZZ=              6.7272
  YYZ=            110.9239  XYZ=            -22.9602
 Hexadecapole moment (field-independent basis, Debye-Ang**3):
 XXXX=          -6394.6618 YYYY=          -3635.0530 ZZZZ=          -1327.5683 XXXY=            523.3335
 XXXZ=            568.2326 YYYX=            214.3821 YYYZ=            -65.5007 ZZZX=            120.4189
 ZZZY=           -249.0149 XXYY=          -1540.3224 XXZZ=           -941.4295 YYZZ=           -993.5323
 XXYZ=            -43.1326 YYXZ=            -75.2390 ZZXY=            -13.6372
 N-N= 1.175241234705D+03 E-N=-6.322244538510D+03  KE= 1.249119322797D+03
 Leave Link  601 at Fri Sep 14 17:13:19 2018, MaxMem=    33554432 cpu:         1.9
 (Enter /usr/local/pacerepov1/gaussian/G09D01LINDA/g09/l9999.exe)

 Test job not archived.
 1\1\GINC-RICH133-K37-27-R\SP\RLC-wPBE TD-FC\6-31+G(d)\C3H32O15\ROOT\14
 -Sep-2018\0\\#p td=(nstates=15)/6-31+g(d) lc-wpbe charge\\Acroleina in
  Water\\0,1\C,0,0.485154,0.480443,-1.430142\H,0,1.461403,0.187773,-1.0
 55732\H,0,0.429244,0.878853,-2.437062\C,0,-0.605127,0.346563,-0.658432
 \H,0,-1.591686,0.632893,-1.012412\C,0,-0.508516,-0.199107,0.712798\H,0
 ,-1.458487,-0.272107,1.272438\O,0,0.544883,-0.561317,1.236519\O,0,1.09
 6553,-2.847629,1.166167\H,0,0.531813,-2.287329,0.560207\H,0,0.613333,-
 3.696099,1.381957\O,0,1.108373,-0.749409,4.057066\H,0,1.496173,-0.0289
 59,4.632037\H,0,1.803493,-1.074409,3.415827\O,0,2.566663,-1.966299,2.7
 28377\H,0,3.393013,-1.646439,2.264807\H,0,1.927103,-2.334259,2.053407\
 O,0,-1.108227,0.240261,4.471677\H,0,-1.315407,0.348421,5.443977\H,0,-0
 .133317,0.048781,4.357957\O,0,3.578103,2.342081,-1.400443\H,0,3.555783
 ,3.323621,-1.590533\H,0,2.650003,1.972581,-1.446323\O,0,0.978473,4.723
 051,-2.502233\H,0,1.087293,5.450501,-3.179713\H,0,0.006383,4.591201,-2
 .308023\O,0,-0.350027,-2.375569,4.903927\H,0,0.145813,-1.597939,4.5172
 67\H,0,-1.085967,-2.644009,4.282257\O,0,2.283893,1.000831,4.946277\H,0
 ,2.865493,0.307381,5.371597\H,0,2.855473,1.729961,4.569837\O,0,-2.9123
 07,-0.644769,3.045157\H,0,-2.680737,-1.596409,2.843187\H,0,-2.190077,-
 0.237449,3.604167\O,0,2.696483,-4.932289,0.070857\H,0,2.058263,-4.2582
 09,0.442857\H,0,2.905003,-5.615479,0.770707\O,0,-1.918627,5.021801,-2.
 410303\H,0,-2.652167,4.457201,-2.788693\H,0,-2.123207,5.238051,-1.4556
 33\O,0,3.228553,-2.808129,4.781417\H,0,2.963083,-2.532669,3.857447\H,0
 ,3.382693,-1.993559,5.340677\O,0,-0.017057,-4.889499,1.741107\H,0,-0.4
 93467,-5.586779,1.205507\H,0,0.730063,-5.314569,2.252097\O,0,4.773603,
 -1.037149,1.924817\H,0,4.832993,-0.101519,2.272827\H,0,5.457003,-1.169
 699,1.206877\\Version=EM64L-G09RevD.01\State=1-A\HF=-1759.8199139\RMSD
 =2.839e-09\PG=C01 [X(C3H32O15)]\\@


 IF AT FIRST YOU DON'T SUCCEED, TRY, TRY AGAIN.
 THEN GIVE UP;
 THERE'S NO USE BEING A DAMN FOOL ABOUT IT.

                                 -- W. C. FIELDS
 Job cpu time:       0 days  3 hours 14 minutes 36.7 seconds.
 File lengths (MBytes):  RWF=    792 Int=      0 D2E=      0 Chk=     96 Scr=      2
 Normal termination of Gaussian 09 at Fri Sep 14 17:13:20 2018.
