 Entering Gaussian System, Link 0=g09
 Input=Acroleina_water_15_19c.gjf
 Output=Acroleina_water_15_19c.log
 Initial command:
 /usr/local/pacerepov1/gaussian/G09D01LINDA/g09/l1.exe /nv/hp18/holiveira7/scratch/22411825/Gau-125680.inp -scrdir=/nv/hp18/holiveira7/scratch/22411825/
 Entering Link 1 = /usr/local/pacerepov1/gaussian/G09D01LINDA/g09/l1.exe PID=    125681.
  
 Copyright (c) 1988,1990,1992,1993,1995,1998,2003,2009,2013,
            Gaussian, Inc.  All Rights Reserved.
  
 This is part of the Gaussian(R) 09 program.  It is based on
 the Gaussian(R) 03 system (copyright 2003, Gaussian, Inc.),
 the Gaussian(R) 98 system (copyright 1998, Gaussian, Inc.),
 the Gaussian(R) 94 system (copyright 1995, Gaussian, Inc.),
 the Gaussian 92(TM) system (copyright 1992, Gaussian, Inc.),
 the Gaussian 90(TM) system (copyright 1990, Gaussian, Inc.),
 the Gaussian 88(TM) system (copyright 1988, Gaussian, Inc.),
 the Gaussian 86(TM) system (copyright 1986, Carnegie Mellon
 University), and the Gaussian 82(TM) system (copyright 1983,
 Carnegie Mellon University). Gaussian is a federally registered
 trademark of Gaussian, Inc.
  
 This software contains proprietary and confidential information,
 including trade secrets, belonging to Gaussian, Inc.
  
 This software is provided under written license and may be
 used, copied, transmitted, or stored only in accord with that
 written license.
  
 The following legend is applicable only to US Government
 contracts under FAR:
  
                    RESTRICTED RIGHTS LEGEND
  
 Use, reproduction and disclosure by the US Government is
 subject to restrictions as set forth in subparagraphs (a)
 and (c) of the Commercial Computer Software - Restricted
 Rights clause in FAR 52.227-19.
  
 Gaussian, Inc.
 340 Quinnipiac St., Bldg. 40, Wallingford CT 06492
  
  
 ---------------------------------------------------------------
 Warning -- This program may not be used in any manner that
 competes with the business of Gaussian, Inc. or will provide
 assistance to any competitor of Gaussian, Inc.  The licensee
 of this program is prohibited from giving any competitor of
 Gaussian, Inc. access to this program.  By using this program,
 the user acknowledges that Gaussian, Inc. is engaged in the
 business of creating and licensing software in the field of
 computational chemistry and represents and warrants to the
 licensee that it is not a competitor of Gaussian, Inc. and that
 it will not use this program in any manner prohibited above.
 ---------------------------------------------------------------
  

 Cite this work as:
 Gaussian 09, Revision D.01,
 M. J. Frisch, G. W. Trucks, H. B. Schlegel, G. E. Scuseria, 
 M. A. Robb, J. R. Cheeseman, G. Scalmani, V. Barone, B. Mennucci, 
 G. A. Petersson, H. Nakatsuji, M. Caricato, X. Li, H. P. Hratchian, 
 A. F. Izmaylov, J. Bloino, G. Zheng, J. L. Sonnenberg, M. Hada, 
 M. Ehara, K. Toyota, R. Fukuda, J. Hasegawa, M. Ishida, T. Nakajima, 
 Y. Honda, O. Kitao, H. Nakai, T. Vreven, J. A. Montgomery, Jr., 
 J. E. Peralta, F. Ogliaro, M. Bearpark, J. J. Heyd, E. Brothers, 
 K. N. Kudin, V. N. Staroverov, T. Keith, R. Kobayashi, J. Normand, 
 K. Raghavachari, A. Rendell, J. C. Burant, S. S. Iyengar, J. Tomasi, 
 M. Cossi, N. Rega, J. M. Millam, M. Klene, J. E. Knox, J. B. Cross, 
 V. Bakken, C. Adamo, J. Jaramillo, R. Gomperts, R. E. Stratmann, 
 O. Yazyev, A. J. Austin, R. Cammi, C. Pomelli, J. W. Ochterski, 
 R. L. Martin, K. Morokuma, V. G. Zakrzewski, G. A. Voth, 
 P. Salvador, J. J. Dannenberg, S. Dapprich, A. D. Daniels, 
 O. Farkas, J. B. Foresman, J. V. Ortiz, J. Cioslowski, 
 and D. J. Fox, Gaussian, Inc., Wallingford CT, 2013.
 
 ******************************************
 Gaussian 09:  EM64L-G09RevD.01 24-Apr-2013
                14-Sep-2018 
 ******************************************
 %chk=Acrolina_Din_19.chk
 %nprocshared=10
 Will use up to   10 processors via shared memory.
 -------------------------------------------
 #p td=(nstates=15)/6-31+g(d) lc-wpbe charge
 -------------------------------------------
 1/18=10,28=-2,38=1,125=101/1;
 2/12=2,17=6,18=5,40=1/2;
 3/5=1,6=6,7=11,11=9,16=1,25=1,30=1,74=-41/1,2,8,3;
 4//1;
 5/5=2,38=5/2;
 8/6=1,10=2,108=15/1;
 9/41=15,42=1,70=2/14;
 6/7=2,8=2,9=2,10=2/1;
 99/5=1,9=1/99;
 Leave Link    1 at Fri Sep 14 16:34:08 2018, MaxMem=           0 cpu:         6.5
 (Enter /usr/local/pacerepov1/gaussian/G09D01LINDA/g09/l101.exe)
 ------------------
 Acroleina in Water
 ------------------
 Symbolic Z-matrix:
 Charge =  0 Multiplicity = 1
 C                     0.48515   0.48044  -1.43014 
 H                     1.4614    0.18777  -1.05573 
 H                     0.42924   0.87885  -2.43706 
 C                    -0.60513   0.34656  -0.65843 
 H                    -1.59169   0.63289  -1.01241 
 C                    -0.50852  -0.19911   0.7128 
 H                    -1.45849  -0.27211   1.27244 
 O                     0.54488  -0.56132   1.23652 
 O                    -1.50684  -0.31931   3.66988 
 H                    -1.24416   0.10492   2.80325 
 H                    -1.00913   0.11759   4.41918 
 O                     1.66991   2.29153   1.7841 
 H                     1.23447   3.06235   1.319 
 H                     0.98556   1.79447   2.31759 
 O                     5.02931  -1.2929   -1.9735 
 H                     5.91234  -0.92134  -1.68669 
 H                     4.70922  -1.95345  -1.29433 
 O                     3.44302  -2.19323  -3.52081 
 H                     4.12278  -2.04312  -2.80285 
 H                     2.99904  -1.32592  -3.74604 
 O                    -0.39268  -2.473     3.45596 
 H                    -0.79823  -1.56017   3.40767 
 H                    -1.07187  -3.12169   3.79929 
 O                     4.12298  -1.70501   2.0496 
 H                     4.27483  -1.94865   1.09168 
 H                     4.0743   -2.5375    2.60152 
 O                     4.48504  -2.75216  -0.0405 
 H                     3.78261  -3.32186   0.38621 
 H                     5.33391  -3.27455  -0.12162 
 O                     2.93269  -1.13179   4.16617 
 H                     3.4209   -0.33046   4.51194 
 H                     3.16423  -1.27346   3.20369 
 O                     2.60427  -0.12208  -3.9852 
 H                     2.13311   0.2876   -4.76639 
 H                     3.10092   0.58786  -3.48582 
 O                     4.57841   1.06161  -2.91443 
 H                     5.03387   1.08594  -3.80436 
 H                     4.7012    0.15902  -2.50175 
 O                     2.76315  -4.21497   0.89645 
 H                     1.88929  -4.04976   1.35375 
 H                     2.60813  -4.7457    0.06317 
 O                     3.55739  -4.62497  -2.86623 
 H                     3.26829  -3.7097   -3.14688 
 H                     3.41607  -5.26527  -3.62129 
 O                     3.84174   2.34958   1.20873 
 H                     3.88459   2.47708   0.21779 
 H                     2.88558   2.32726   1.50084 
 O                     5.24006   0.2467    1.58603 
 H                     4.61799   1.02537   1.66836 
 H                     4.78722  -0.57873   1.92321 
 
 NAtoms=     50 NQM=       50 NQMF=       0 NMMI=      0 NMMIF=      0
                NMic=       0 NMicF=      0.
                    Isotopes and Nuclear Properties:
 (Nuclear quadrupole moments (NQMom) in fm**2, nuclear magnetic moments (NMagM)
  in nuclear magnetons)

  Atom         1           2           3           4           5           6           7           8           9          10
 IAtWgt=          12           1           1          12           1          12           1          16          16           1
 AtmWgt=  12.0000000   1.0078250   1.0078250  12.0000000   1.0078250  12.0000000   1.0078250  15.9949146  15.9949146   1.0078250
 NucSpn=           0           1           1           0           1           0           1           0           0           1
 AtZEff=   0.0000000   0.0000000   0.0000000   0.0000000   0.0000000   0.0000000   0.0000000   0.0000000   0.0000000   0.0000000
 NQMom=    0.0000000   0.0000000   0.0000000   0.0000000   0.0000000   0.0000000   0.0000000   0.0000000   0.0000000   0.0000000
 NMagM=    0.0000000   2.7928460   2.7928460   0.0000000   2.7928460   0.0000000   2.7928460   0.0000000   0.0000000   2.7928460
 AtZNuc=   6.0000000   1.0000000   1.0000000   6.0000000   1.0000000   6.0000000   1.0000000   8.0000000   8.0000000   1.0000000

  Atom        11          12          13          14          15          16          17          18          19          20
 IAtWgt=           1          16           1           1          16           1           1          16           1           1
 AtmWgt=   1.0078250  15.9949146   1.0078250   1.0078250  15.9949146   1.0078250   1.0078250  15.9949146   1.0078250   1.0078250
 NucSpn=           1           0           1           1           0           1           1           0           1           1
 AtZEff=   0.0000000   0.0000000   0.0000000   0.0000000   0.0000000   0.0000000   0.0000000   0.0000000   0.0000000   0.0000000
 NQMom=    0.0000000   0.0000000   0.0000000   0.0000000   0.0000000   0.0000000   0.0000000   0.0000000   0.0000000   0.0000000
 NMagM=    2.7928460   0.0000000   2.7928460   2.7928460   0.0000000   2.7928460   2.7928460   0.0000000   2.7928460   2.7928460
 AtZNuc=   1.0000000   8.0000000   1.0000000   1.0000000   8.0000000   1.0000000   1.0000000   8.0000000   1.0000000   1.0000000

  Atom        21          22          23          24          25          26          27          28          29          30
 IAtWgt=          16           1           1          16           1           1          16           1           1          16
 AtmWgt=  15.9949146   1.0078250   1.0078250  15.9949146   1.0078250   1.0078250  15.9949146   1.0078250   1.0078250  15.9949146
 NucSpn=           0           1           1           0           1           1           0           1           1           0
 AtZEff=   0.0000000   0.0000000   0.0000000   0.0000000   0.0000000   0.0000000   0.0000000   0.0000000   0.0000000   0.0000000
 NQMom=    0.0000000   0.0000000   0.0000000   0.0000000   0.0000000   0.0000000   0.0000000   0.0000000   0.0000000   0.0000000
 NMagM=    0.0000000   2.7928460   2.7928460   0.0000000   2.7928460   2.7928460   0.0000000   2.7928460   2.7928460   0.0000000
 AtZNuc=   8.0000000   1.0000000   1.0000000   8.0000000   1.0000000   1.0000000   8.0000000   1.0000000   1.0000000   8.0000000

  Atom        31          32          33          34          35          36          37          38          39          40
 IAtWgt=           1           1          16           1           1          16           1           1          16           1
 AtmWgt=   1.0078250   1.0078250  15.9949146   1.0078250   1.0078250  15.9949146   1.0078250   1.0078250  15.9949146   1.0078250
 NucSpn=           1           1           0           1           1           0           1           1           0           1
 AtZEff=   0.0000000   0.0000000   0.0000000   0.0000000   0.0000000   0.0000000   0.0000000   0.0000000   0.0000000   0.0000000
 NQMom=    0.0000000   0.0000000   0.0000000   0.0000000   0.0000000   0.0000000   0.0000000   0.0000000   0.0000000   0.0000000
 NMagM=    2.7928460   2.7928460   0.0000000   2.7928460   2.7928460   0.0000000   2.7928460   2.7928460   0.0000000   2.7928460
 AtZNuc=   1.0000000   1.0000000   8.0000000   1.0000000   1.0000000   8.0000000   1.0000000   1.0000000   8.0000000   1.0000000

  Atom        41          42          43          44          45          46          47          48          49          50
 IAtWgt=           1          16           1           1          16           1           1          16           1           1
 AtmWgt=   1.0078250  15.9949146   1.0078250   1.0078250  15.9949146   1.0078250   1.0078250  15.9949146   1.0078250   1.0078250
 NucSpn=           1           0           1           1           0           1           1           0           1           1
 AtZEff=   0.0000000   0.0000000   0.0000000   0.0000000   0.0000000   0.0000000   0.0000000   0.0000000   0.0000000   0.0000000
 NQMom=    0.0000000   0.0000000   0.0000000   0.0000000   0.0000000   0.0000000   0.0000000   0.0000000   0.0000000   0.0000000
 NMagM=    2.7928460   0.0000000   2.7928460   2.7928460   0.0000000   2.7928460   2.7928460   0.0000000   2.7928460   2.7928460
 AtZNuc=   1.0000000   8.0000000   1.0000000   1.0000000   8.0000000   1.0000000   1.0000000   8.0000000   1.0000000   1.0000000
 Background charge distribution read from input stream:
 Point Charges:
 XYZ=    0.6525   -4.5053    2.3310 Q=   -0.8200 A=    0.0000 R=    0.0000 C=    0.0000
 XYZ=    0.2832   -3.6691    2.7365 Q=    0.4100 A=    0.0000 R=    0.0000 C=    0.0000
 XYZ=    0.9099   -5.1425    3.0575 Q=    0.4100 A=    0.0000 R=    0.0000 C=    0.0000
 XYZ=   -1.2650    4.6333   -0.0327 Q=   -0.8200 A=    0.0000 R=    0.0000 C=    0.0000
 XYZ=   -0.7154    5.3562   -0.4515 Q=    0.4100 A=    0.0000 R=    0.0000 C=    0.0000
 XYZ=   -2.1869    4.9769    0.1463 Q=    0.4100 A=    0.0000 R=    0.0000 C=    0.0000
 XYZ=   -3.9036   -0.6953    4.4052 Q=   -0.8200 A=    0.0000 R=    0.0000 C=    0.0000
 XYZ=   -3.9483   -1.4506    5.0590 Q=    0.4100 A=    0.0000 R=    0.0000 C=    0.0000
 XYZ=   -2.9663   -0.6000    4.0696 Q=    0.4100 A=    0.0000 R=    0.0000 C=    0.0000
 XYZ=    1.3042    0.4304   -6.1092 Q=   -0.8200 A=    0.0000 R=    0.0000 C=    0.0000
 XYZ=    1.4710    1.2383   -6.6744 Q=    0.4100 A=    0.0000 R=    0.0000 C=    0.0000
 XYZ=    0.3321    0.3784   -5.8807 Q=    0.4100 A=    0.0000 R=    0.0000 C=    0.0000
 XYZ=    0.8956    4.4814    1.0315 Q=   -0.8200 A=    0.0000 R=    0.0000 C=    0.0000
 XYZ=    1.4098    4.7544    0.2184 Q=    0.4100 A=    0.0000 R=    0.0000 C=    0.0000
 XYZ=   -0.0824    4.4801    0.8224 Q=    0.4100 A=    0.0000 R=    0.0000 C=    0.0000
 XYZ=    0.9291   -1.4539    5.0215 Q=   -0.8200 A=    0.0000 R=    0.0000 C=    0.0000
 XYZ=    1.8568   -1.3286    4.6696 Q=    0.4100 A=    0.0000 R=    0.0000 C=    0.0000
 XYZ=    0.3777   -1.9383    4.3423 Q=    0.4100 A=    0.0000 R=    0.0000 C=    0.0000
 XYZ=    4.2705    2.5385   -1.0753 Q=   -0.8200 A=    0.0000 R=    0.0000 C=    0.0000
 XYZ=    4.0546    3.4349   -1.4627 Q=    0.4100 A=    0.0000 R=    0.0000 C=    0.0000
 XYZ=    4.5139    1.9071   -1.8116 Q=    0.4100 A=    0.0000 R=    0.0000 C=    0.0000
 XYZ=    2.6692   -5.8326   -0.9730 Q=   -0.8200 A=    0.0000 R=    0.0000 C=    0.0000
 XYZ=    3.4411   -6.4320   -0.7611 Q=    0.4100 A=    0.0000 R=    0.0000 C=    0.0000
 XYZ=    2.9278   -5.2023   -1.7051 Q=    0.4100 A=    0.0000 R=    0.0000 C=    0.0000
 XYZ=    3.6080   -3.1860   -5.8173 Q=   -0.8200 A=    0.0000 R=    0.0000 C=    0.0000
 XYZ=    3.7356   -2.7977   -4.9046 Q=    0.4100 A=    0.0000 R=    0.0000 C=    0.0000
 XYZ=    4.4724   -3.1498   -6.3187 Q=    0.4100 A=    0.0000 R=    0.0000 C=    0.0000
 XYZ=   -3.7995    2.0148   -4.8405 Q=   -0.8200 A=    0.0000 R=    0.0000 C=    0.0000
 XYZ=   -3.0751    2.5494   -4.4050 Q=    0.4100 A=    0.0000 R=    0.0000 C=    0.0000
 XYZ=   -4.0186    2.4137   -5.7310 Q=    0.4100 A=    0.0000 R=    0.0000 C=    0.0000
 XYZ=    0.2587   -5.8890    0.4127 Q=   -0.8200 A=    0.0000 R=    0.0000 C=    0.0000
 XYZ=    0.3378   -5.2214    1.1530 Q=    0.4100 A=    0.0000 R=    0.0000 C=    0.0000
 XYZ=    1.0380   -5.7938   -0.2067 Q=    0.4100 A=    0.0000 R=    0.0000 C=    0.0000
 XYZ=   -0.5664    0.0490    5.9812 Q=   -0.8200 A=    0.0000 R=    0.0000 C=    0.0000
 XYZ=    0.0543    0.6697    6.4603 Q=    0.4100 A=    0.0000 R=    0.0000 C=    0.0000
 XYZ=   -0.0586   -0.7529    5.6667 Q=    0.4100 A=    0.0000 R=    0.0000 C=    0.0000
 XYZ=    6.2623    1.6762   -0.0586 Q=   -0.8200 A=    0.0000 R=    0.0000 C=    0.0000
 XYZ=    5.4578    2.1165   -0.4574 Q=    0.4100 A=    0.0000 R=    0.0000 C=    0.0000
 XYZ=    5.9934    1.1707    0.7613 Q=    0.4100 A=    0.0000 R=    0.0000 C=    0.0000
 XYZ=    5.7242   -5.2251   -2.0610 Q=   -0.8200 A=    0.0000 R=    0.0000 C=    0.0000
 XYZ=    4.7900   -5.0222   -2.3545 Q=    0.4100 A=    0.0000 R=    0.0000 C=    0.0000
 XYZ=    6.3018   -5.3703   -2.8644 Q=    0.4100 A=    0.0000 R=    0.0000 C=    0.0000
 XYZ=    4.8855    3.4078    2.8004 Q=   -0.8200 A=    0.0000 R=    0.0000 C=    0.0000
 XYZ=    4.2931    4.0786    3.2467 Q=    0.4100 A=    0.0000 R=    0.0000 C=    0.0000
 XYZ=    4.3970    2.9886    2.0352 Q=    0.4100 A=    0.0000 R=    0.0000 C=    0.0000
 XYZ=   -3.3516    5.5366    0.3835 Q=   -0.8200 A=    0.0000 R=    0.0000 C=    0.0000
 XYZ=   -4.2102    5.2066   -0.0088 Q=    0.4100 A=    0.0000 R=    0.0000 C=    0.0000
 XYZ=   -3.4840    5.7370    1.3543 Q=    0.4100 A=    0.0000 R=    0.0000 C=    0.0000
 XYZ=    3.3465   -3.0184    5.6035 Q=   -0.8200 A=    0.0000 R=    0.0000 C=    0.0000
 XYZ=    3.2151   -2.1167    5.1915 Q=    0.4100 A=    0.0000 R=    0.0000 C=    0.0000
 XYZ=    2.8523   -3.0633    6.4717 Q=    0.4100 A=    0.0000 R=    0.0000 C=    0.0000
 XYZ=   -3.0445    4.2417   -4.0132 Q=   -0.8200 A=    0.0000 R=    0.0000 C=    0.0000
 XYZ=   -2.4730    5.0148   -3.7380 Q=    0.4100 A=    0.0000 R=    0.0000 C=    0.0000
 XYZ=   -3.9648    4.3580   -3.6397 Q=    0.4100 A=    0.0000 R=    0.0000 C=    0.0000
 XYZ=    7.0355   -0.3477   -1.1005 Q=   -0.8200 A=    0.0000 R=    0.0000 C=    0.0000
 XYZ=    6.7690    0.5210   -0.6831 Q=    0.4100 A=    0.0000 R=    0.0000 C=    0.0000
 XYZ=    7.5013   -0.9149   -0.4212 Q=    0.4100 A=    0.0000 R=    0.0000 C=    0.0000
 XYZ=    4.4570   -3.8905    3.5301 Q=   -0.8200 A=    0.0000 R=    0.0000 C=    0.0000
 XYZ=    4.1270   -3.4620    4.3712 Q=    0.4100 A=    0.0000 R=    0.0000 C=    0.0000
 XYZ=    4.0500   -4.7991    3.4371 Q=    0.4100 A=    0.0000 R=    0.0000 C=    0.0000
 XYZ=    2.9137   -1.3397   -7.0651 Q=   -0.8200 A=    0.0000 R=    0.0000 C=    0.0000
 XYZ=    3.0785   -2.1225   -6.4650 Q=    0.4100 A=    0.0000 R=    0.0000 C=    0.0000
 XYZ=    2.2658   -0.7155   -6.6285 Q=    0.4100 A=    0.0000 R=    0.0000 C=    0.0000
 XYZ=    6.5210   -4.0295   -0.1819 Q=   -0.8200 A=    0.0000 R=    0.0000 C=    0.0000
 XYZ=    7.4951   -4.2516   -0.1391 Q=    0.4100 A=    0.0000 R=    0.0000 C=    0.0000
 XYZ=    6.1030   -4.5106   -0.9525 Q=    0.4100 A=    0.0000 R=    0.0000 C=    0.0000
 XYZ=   -5.9387    1.1603   -4.4305 Q=   -0.8200 A=    0.0000 R=    0.0000 C=    0.0000
 XYZ=   -5.8094    0.1836   -4.2589 Q=    0.4100 A=    0.0000 R=    0.0000 C=    0.0000
 XYZ=   -5.0508    1.6204   -4.4225 Q=    0.4100 A=    0.0000 R=    0.0000 C=    0.0000
 XYZ=    1.7807    5.9958    2.5981 Q=   -0.8200 A=    0.0000 R=    0.0000 C=    0.0000
 XYZ=    1.2998    5.2845    2.0853 Q=    0.4100 A=    0.0000 R=    0.0000 C=    0.0000
 XYZ=    2.2974    6.5717    1.9646 Q=    0.4100 A=    0.0000 R=    0.0000 C=    0.0000
 XYZ=    7.3231    0.5335    2.6168 Q=   -0.8200 A=    0.0000 R=    0.0000 C=    0.0000
 XYZ=    7.2437    1.2181    3.3413 Q=    0.4100 A=    0.0000 R=    0.0000 C=    0.0000
 XYZ=    6.4232    0.3707    2.2120 Q=    0.4100 A=    0.0000 R=    0.0000 C=    0.0000
 XYZ=    3.2996   -6.0591    2.9483 Q=   -0.8200 A=    0.0000 R=    0.0000 C=    0.0000
 XYZ=    3.2121   -5.5455    2.0948 Q=    0.4100 A=    0.0000 R=    0.0000 C=    0.0000
 XYZ=    2.4608   -5.9608    3.4840 Q=    0.4100 A=    0.0000 R=    0.0000 C=    0.0000
 XYZ=   -5.3774    4.7176   -2.9933 Q=   -0.8200 A=    0.0000 R=    0.0000 C=    0.0000
 XYZ=   -5.2986    4.4758   -2.0261 Q=    0.4100 A=    0.0000 R=    0.0000 C=    0.0000
 XYZ=   -6.2425    4.3695   -3.3544 Q=    0.4100 A=    0.0000 R=    0.0000 C=    0.0000
 XYZ=   -5.6395    4.4510   -0.3957 Q=   -0.8200 A=    0.0000 R=    0.0000 C=    0.0000
 XYZ=   -6.0570    5.2025    0.1153 Q=    0.4100 A=    0.0000 R=    0.0000 C=    0.0000
 XYZ=   -6.2338    3.6479   -0.3525 Q=    0.4100 A=    0.0000 R=    0.0000 C=    0.0000
 XYZ=   -6.2102   -1.1299    3.6859 Q=   -0.8200 A=    0.0000 R=    0.0000 C=    0.0000
 XYZ=   -5.2641   -0.8598    3.8650 Q=    0.4100 A=    0.0000 R=    0.0000 C=    0.0000
 XYZ=   -6.2930   -2.1237    3.7609 Q=    0.4100 A=    0.0000 R=    0.0000 C=    0.0000
 XYZ=    7.2399   -1.1447   -4.2719 Q=   -0.8200 A=    0.0000 R=    0.0000 C=    0.0000
 XYZ=    7.9827   -0.9918   -3.6201 Q=    0.4100 A=    0.0000 R=    0.0000 C=    0.0000
 XYZ=    6.6697   -1.9030   -3.9556 Q=    0.4100 A=    0.0000 R=    0.0000 C=    0.0000
 XYZ=    4.1788    0.5443    5.2642 Q=   -0.8200 A=    0.0000 R=    0.0000 C=    0.0000
 XYZ=    4.3419   -0.1228    5.9913 Q=    0.4100 A=    0.0000 R=    0.0000 C=    0.0000
 XYZ=    3.7515    1.3613    5.6513 Q=    0.4100 A=    0.0000 R=    0.0000 C=    0.0000
 XYZ=    1.5478   -5.2443    4.3876 Q=   -0.8200 A=    0.0000 R=    0.0000 C=    0.0000
 XYZ=    0.9371   -5.5622    5.1129 Q=    0.4100 A=    0.0000 R=    0.0000 C=    0.0000
 XYZ=    2.0607   -4.4482    4.7089 Q=    0.4100 A=    0.0000 R=    0.0000 C=    0.0000
 XYZ=    6.4734   -4.2636    2.3483 Q=   -0.8200 A=    0.0000 R=    0.0000 C=    0.0000
 XYZ=    5.6492   -3.9329    2.8081 Q=    0.4100 A=    0.0000 R=    0.0000 C=    0.0000
 XYZ=    6.5368   -3.8500    1.4400 Q=    0.4100 A=    0.0000 R=    0.0000 C=    0.0000
 XYZ=   -3.1116    7.1581   -1.4147 Q=   -0.8200 A=    0.0000 R=    0.0000 C=    0.0000
 XYZ=   -3.1797    6.4156   -0.7483 Q=    0.4100 A=    0.0000 R=    0.0000 C=    0.0000
 XYZ=   -2.7064    7.9614   -0.9783 Q=    0.4100 A=    0.0000 R=    0.0000 C=    0.0000
 XYZ=    5.9585    0.6822   -4.8419 Q=   -0.8200 A=    0.0000 R=    0.0000 C=    0.0000
 XYZ=    6.4216    1.5562   -4.6943 Q=    0.4100 A=    0.0000 R=    0.0000 C=    0.0000
 XYZ=    6.5608   -0.0655   -4.5622 Q=    0.4100 A=    0.0000 R=    0.0000 C=    0.0000
 XYZ=   -1.6741   -4.2108    4.3962 Q=   -0.8200 A=    0.0000 R=    0.0000 C=    0.0000
 XYZ=   -2.0439   -4.9187    3.7944 Q=    0.4100 A=    0.0000 R=    0.0000 C=    0.0000
 XYZ=   -0.9309   -4.5944    4.9445 Q=    0.4100 A=    0.0000 R=    0.0000 C=    0.0000
 XYZ=    4.7481   -6.8315   -0.7958 Q=   -0.8200 A=    0.0000 R=    0.0000 C=    0.0000
 XYZ=    5.4120   -7.2724   -0.1919 Q=    0.4100 A=    0.0000 R=    0.0000 C=    0.0000
 XYZ=    5.2000   -6.1059   -1.3148 Q=    0.4100 A=    0.0000 R=    0.0000 C=    0.0000
 XYZ=   -2.0994   -1.3455    7.2478 Q=   -0.8200 A=    0.0000 R=    0.0000 C=    0.0000
 XYZ=   -1.7262   -0.5175    6.8294 Q=    0.4100 A=    0.0000 R=    0.0000 C=    0.0000
 XYZ=   -2.8546   -1.6896    6.6898 Q=    0.4100 A=    0.0000 R=    0.0000 C=    0.0000
 XYZ=    5.9309    1.7834    4.3975 Q=   -0.8200 A=    0.0000 R=    0.0000 C=    0.0000
 XYZ=    5.5162    2.3767    3.7075 Q=    0.4100 A=    0.0000 R=    0.0000 C=    0.0000
 XYZ=    5.2415    1.1512    4.7513 Q=    0.4100 A=    0.0000 R=    0.0000 C=    0.0000
 XYZ=    1.5426   -2.4873    7.2574 Q=   -0.8200 A=    0.0000 R=    0.0000 C=    0.0000
 XYZ=    1.3474   -2.0713    6.3692 Q=    0.4100 A=    0.0000 R=    0.0000 C=    0.0000
 XYZ=    1.8969   -1.7906    7.8811 Q=    0.4100 A=    0.0000 R=    0.0000 C=    0.0000
 XYZ=   -3.7850    5.6499    2.7988 Q=   -0.8200 A=    0.0000 R=    0.0000 C=    0.0000
 XYZ=   -4.5386    4.9972    2.7206 Q=    0.4100 A=    0.0000 R=    0.0000 C=    0.0000
 XYZ=   -3.2417    5.4361    3.6107 Q=    0.4100 A=    0.0000 R=    0.0000 C=    0.0000
 XYZ=   -0.0944    6.6281   -0.8541 Q=   -0.8200 A=    0.0000 R=    0.0000 C=    0.0000
 XYZ=    0.8458    6.2876   -0.8492 Q=    0.4100 A=    0.0000 R=    0.0000 C=    0.0000
 XYZ=   -0.2789    7.0850   -1.7243 Q=    0.4100 A=    0.0000 R=    0.0000 C=    0.0000
 XYZ=    7.8842   -1.3432    0.7395 Q=   -0.8200 A=    0.0000 R=    0.0000 C=    0.0000
 XYZ=    8.0513   -2.2844    1.0333 Q=    0.4100 A=    0.0000 R=    0.0000 C=    0.0000
 XYZ=    7.7498   -0.7624    1.5425 Q=    0.4100 A=    0.0000 R=    0.0000 C=    0.0000
 XYZ=    8.8205   -0.7581   -2.5803 Q=   -0.8200 A=    0.0000 R=    0.0000 C=    0.0000
 XYZ=    8.0532   -0.5206   -1.9845 Q=    0.4100 A=    0.0000 R=    0.0000 C=    0.0000
 XYZ=    9.5413   -1.1911   -2.0390 Q=    0.4100 A=    0.0000 R=    0.0000 C=    0.0000
 XYZ=   -1.7493   -6.7674    1.1963 Q=   -0.8200 A=    0.0000 R=    0.0000 C=    0.0000
 XYZ=   -0.9096   -6.4266    0.7734 Q=    0.4100 A=    0.0000 R=    0.0000 C=    0.0000
 XYZ=   -2.2069   -7.3970    0.5684 Q=    0.4100 A=    0.0000 R=    0.0000 C=    0.0000
 XYZ=   -2.6271    5.2590   -6.0207 Q=   -0.8200 A=    0.0000 R=    0.0000 C=    0.0000
 XYZ=   -2.8380    4.6339   -5.2692 Q=    0.4100 A=    0.0000 R=    0.0000 C=    0.0000
 XYZ=   -3.4770    5.5537   -6.4575 Q=    0.4100 A=    0.0000 R=    0.0000 C=    0.0000
 XYZ=   -7.7222    2.3218   -0.3521 Q=   -0.8200 A=    0.0000 R=    0.0000 C=    0.0000
 XYZ=   -7.8435    1.3351   -0.4605 Q=    0.4100 A=    0.0000 R=    0.0000 C=    0.0000
 XYZ=   -8.3263    2.8036   -0.9869 Q=    0.4100 A=    0.0000 R=    0.0000 C=    0.0000
 XYZ=    4.9326    0.0694   -7.0134 Q=   -0.8200 A=    0.0000 R=    0.0000 C=    0.0000
 XYZ=    5.2378    0.3833   -6.1143 Q=    0.4100 A=    0.0000 R=    0.0000 C=    0.0000
 XYZ=    4.0679   -0.4239   -6.9182 Q=    0.4100 A=    0.0000 R=    0.0000 C=    0.0000
 XYZ=    2.1265    5.8679   -0.5961 Q=   -0.8200 A=    0.0000 R=    0.0000 C=    0.0000
 XYZ=    2.5614    6.4365    0.1021 Q=    0.4100 A=    0.0000 R=    0.0000 C=    0.0000
 XYZ=    2.8298    5.3883   -1.1210 Q=    0.4100 A=    0.0000 R=    0.0000 C=    0.0000
 XYZ=   -5.8917    0.2348    5.6685 Q=   -0.8200 A=    0.0000 R=    0.0000 C=    0.0000
 XYZ=   -4.8981    0.1614    5.7552 Q=    0.4100 A=    0.0000 R=    0.0000 C=    0.0000
 XYZ=   -6.1899   -0.2402    4.8405 Q=    0.4100 A=    0.0000 R=    0.0000 C=    0.0000
 XYZ=    1.8461    2.2214   -7.4758 Q=   -0.8200 A=    0.0000 R=    0.0000 C=    0.0000
 XYZ=    2.8365    2.3557   -7.4433 Q=    0.4100 A=    0.0000 R=    0.0000 C=    0.0000
 XYZ=    1.5640    2.0483   -8.4195 Q=    0.4100 A=    0.0000 R=    0.0000 C=    0.0000
 XYZ=    3.9008    4.8043   -1.8724 Q=   -0.8200 A=    0.0000 R=    0.0000 C=    0.0000
 XYZ=    4.8380    4.9958   -1.5807 Q=    0.4100 A=    0.0000 R=    0.0000 C=    0.0000
 XYZ=    3.8178    4.9679   -2.8555 Q=    0.4100 A=    0.0000 R=    0.0000 C=    0.0000
 XYZ=   -0.8879    5.8019   -4.4389 Q=   -0.8200 A=    0.0000 R=    0.0000 C=    0.0000
 XYZ=   -1.6054    5.6602   -5.1210 Q=    0.4100 A=    0.0000 R=    0.0000 C=    0.0000
 XYZ=    0.0068    5.7672   -4.8842 Q=    0.4100 A=    0.0000 R=    0.0000 C=    0.0000
 XYZ=    1.2768    0.8624    7.7217 Q=   -0.8200 A=    0.0000 R=    0.0000 C=    0.0000
 XYZ=    1.7716    0.1103    8.1572 Q=    0.4100 A=    0.0000 R=    0.0000 C=    0.0000
 XYZ=    1.8679    1.3031    7.0461 Q=    0.4100 A=    0.0000 R=    0.0000 C=    0.0000
 XYZ=    2.7368   -5.1209   -7.1861 Q=   -0.8200 A=    0.0000 R=    0.0000 C=    0.0000
 XYZ=    3.3576   -5.1431   -7.9698 Q=    0.4100 A=    0.0000 R=    0.0000 C=    0.0000
 XYZ=    2.8828   -4.2774   -6.6691 Q=    0.4100 A=    0.0000 R=    0.0000 C=    0.0000
 XYZ=    3.5756    5.0599    3.8789 Q=   -0.8200 A=    0.0000 R=    0.0000 C=    0.0000
 XYZ=    3.2154    4.6879    4.7344 Q=    0.4100 A=    0.0000 R=    0.0000 C=    0.0000
 XYZ=    2.8338    5.4892    3.3637 Q=    0.4100 A=    0.0000 R=    0.0000 C=    0.0000
 XYZ=   -7.2276    3.5821   -3.9483 Q=   -0.8200 A=    0.0000 R=    0.0000 C=    0.0000
 XYZ=   -7.5431    3.8721   -4.8518 Q=    0.4100 A=    0.0000 R=    0.0000 C=    0.0000
 XYZ=   -6.8277    2.6678   -4.0125 Q=    0.4100 A=    0.0000 R=    0.0000 C=    0.0000
 XYZ=    3.9504    4.9407   -4.3704 Q=   -0.8200 A=    0.0000 R=    0.0000 C=    0.0000
 XYZ=    4.6277    5.5471   -4.7870 Q=    0.4100 A=    0.0000 R=    0.0000 C=    0.0000
 XYZ=    4.2229    3.9891   -4.5125 Q=    0.4100 A=    0.0000 R=    0.0000 C=    0.0000
 XYZ=    1.7754    5.4432   -4.6894 Q=   -0.8200 A=    0.0000 R=    0.0000 C=    0.0000
 XYZ=    1.4149    5.8922   -3.8718 Q=    0.4100 A=    0.0000 R=    0.0000 C=    0.0000
 XYZ=    2.7588    5.2962   -4.5826 Q=    0.4100 A=    0.0000 R=    0.0000 C=    0.0000
 XYZ=   -7.8509   -1.4100    1.8930 Q=   -0.8200 A=    0.0000 R=    0.0000 C=    0.0000
 XYZ=   -7.1166   -1.1441    2.5176 Q=    0.4100 A=    0.0000 R=    0.0000 C=    0.0000
 XYZ=   -7.7820   -2.3877    1.6947 Q=    0.4100 A=    0.0000 R=    0.0000 C=    0.0000
 XYZ=   -1.0042   -4.7786   -7.4686 Q=   -0.8200 A=    0.0000 R=    0.0000 C=    0.0000
 XYZ=   -0.8391   -5.7417   -7.2559 Q=    0.4100 A=    0.0000 R=    0.0000 C=    0.0000
 XYZ=   -0.2224   -4.2322   -7.1682 Q=    0.4100 A=    0.0000 R=    0.0000 C=    0.0000
 XYZ=   -4.8233    6.9902   -2.9202 Q=   -0.8200 A=    0.0000 R=    0.0000 C=    0.0000
 XYZ=   -4.1202    7.1753   -2.2336 Q=    0.4100 A=    0.0000 R=    0.0000 C=    0.0000
 XYZ=   -4.9459    6.0022   -3.0138 Q=    0.4100 A=    0.0000 R=    0.0000 C=    0.0000
 XYZ=    3.0716    2.1082    6.4369 Q=   -0.8200 A=    0.0000 R=    0.0000 C=    0.0000
 XYZ=    3.2969    2.0567    7.4099 Q=    0.4100 A=    0.0000 R=    0.0000 C=    0.0000
 XYZ=    2.9284    3.0635    6.1782 Q=    0.4100 A=    0.0000 R=    0.0000 C=    0.0000
 XYZ=    0.2696    6.7216    4.4492 Q=   -0.8200 A=    0.0000 R=    0.0000 C=    0.0000
 XYZ=   -0.2534    7.4256    3.9686 Q=    0.4100 A=    0.0000 R=    0.0000 C=    0.0000
 XYZ=    0.9750    6.3571    3.8411 Q=    0.4100 A=    0.0000 R=    0.0000 C=    0.0000
 XYZ=    7.7531    3.5905   -0.1644 Q=   -0.8200 A=    0.0000 R=    0.0000 C=    0.0000
 XYZ=    7.2601    2.7312   -0.0285 Q=    0.4100 A=    0.0000 R=    0.0000 C=    0.0000
 XYZ=    8.2319    3.8369    0.6783 Q=    0.4100 A=    0.0000 R=    0.0000 C=    0.0000
 XYZ=   -6.2093    4.6776    2.5422 Q=   -0.8200 A=    0.0000 R=    0.0000 C=    0.0000
 XYZ=   -6.6483    5.2865    1.8815 Q=    0.4100 A=    0.0000 R=    0.0000 C=    0.0000
 XYZ=   -6.5468    4.8836    3.4607 Q=    0.4100 A=    0.0000 R=    0.0000 C=    0.0000
 XYZ=   -7.9795    3.1660    2.0341 Q=   -0.8200 A=    0.0000 R=    0.0000 C=    0.0000
 XYZ=   -7.1294    3.6845    2.1265 Q=    0.4100 A=    0.0000 R=    0.0000 C=    0.0000
 XYZ=   -8.0619    2.8252    1.0976 Q=    0.4100 A=    0.0000 R=    0.0000 C=    0.0000
 XYZ=    1.1065    4.7696   -6.8392 Q=   -0.8200 A=    0.0000 R=    0.0000 C=    0.0000
 XYZ=    1.5454    4.9819   -5.9660 Q=    0.4100 A=    0.0000 R=    0.0000 C=    0.0000
 XYZ=    1.5202    3.9466   -7.2287 Q=    0.4100 A=    0.0000 R=    0.0000 C=    0.0000
 XYZ=   -4.1759   -2.2836    6.2330 Q=   -0.8200 A=    0.0000 R=    0.0000 C=    0.0000
 XYZ=   -4.7814   -2.0819    7.0029 Q=    0.4100 A=    0.0000 R=    0.0000 C=    0.0000
 XYZ=   -4.0647   -3.2737    6.1470 Q=    0.4100 A=    0.0000 R=    0.0000 C=    0.0000
 XYZ=   -3.7449   -4.5582    5.7175 Q=   -0.8200 A=    0.0000 R=    0.0000 C=    0.0000
 XYZ=   -2.9372   -4.4928    5.1314 Q=    0.4100 A=    0.0000 R=    0.0000 C=    0.0000
 XYZ=   -3.5860   -5.2432    6.4286 Q=    0.4100 A=    0.0000 R=    0.0000 C=    0.0000
 XYZ=   -2.5281   -5.8849    3.0876 Q=   -0.8200 A=    0.0000 R=    0.0000 C=    0.0000
 XYZ=   -2.0064   -6.2989    2.3416 Q=    0.4100 A=    0.0000 R=    0.0000 C=    0.0000
 XYZ=   -3.4338   -5.6220    2.7551 Q=    0.4100 A=    0.0000 R=    0.0000 C=    0.0000
 XYZ=    5.5525   -6.7040    2.6028 Q=   -0.8200 A=    0.0000 R=    0.0000 C=    0.0000
 XYZ=    5.9948   -5.8072    2.6136 Q=    0.4100 A=    0.0000 R=    0.0000 C=    0.0000
 XYZ=    4.5631   -6.5866    2.5168 Q=    0.4100 A=    0.0000 R=    0.0000 C=    0.0000
 XYZ=   -1.0988    7.6367   -2.7850 Q=   -0.8200 A=    0.0000 R=    0.0000 C=    0.0000
 XYZ=   -1.9173    7.4974   -2.2276 Q=    0.4100 A=    0.0000 R=    0.0000 C=    0.0000
 XYZ=   -1.1302    7.0313   -3.5803 Q=    0.4100 A=    0.0000 R=    0.0000 C=    0.0000
 XYZ=   -3.1242    7.7497    2.0689 Q=   -0.8200 A=    0.0000 R=    0.0000 C=    0.0000
 XYZ=   -3.5044    8.4568    2.6652 Q=    0.4100 A=    0.0000 R=    0.0000 C=    0.0000
 XYZ=   -3.5123    6.8617    2.3157 Q=    0.4100 A=    0.0000 R=    0.0000 C=    0.0000
 XYZ=   -8.6200   -0.1112   -0.0166 Q=   -0.8200 A=    0.0000 R=    0.0000 C=    0.0000
 XYZ=   -8.5063   -0.7016   -0.8158 Q=    0.4100 A=    0.0000 R=    0.0000 C=    0.0000
 XYZ=   -8.3350   -0.6044    0.8053 Q=    0.4100 A=    0.0000 R=    0.0000 C=    0.0000
 XYZ=   -0.6004   -3.6216    7.4625 Q=   -0.8200 A=    0.0000 R=    0.0000 C=    0.0000
 XYZ=    0.3356   -3.2696    7.4645 Q=    0.4100 A=    0.0000 R=    0.0000 C=    0.0000
 XYZ=   -1.2372   -2.8742    7.2727 Q=    0.4100 A=    0.0000 R=    0.0000 C=    0.0000
 XYZ=    0.3863    8.2942    0.8290 Q=   -0.8200 A=    0.0000 R=    0.0000 C=    0.0000
 XYZ=   -0.0820    8.1410    1.6992 Q=    0.4100 A=    0.0000 R=    0.0000 C=    0.0000
 XYZ=    0.1370    7.5712    0.1846 Q=    0.4100 A=    0.0000 R=    0.0000 C=    0.0000
 XYZ=    2.5592   -1.4087   -9.3457 Q=   -0.8200 A=    0.0000 R=    0.0000 C=    0.0000
 XYZ=    2.6172   -1.3130   -8.3520 Q=    0.4100 A=    0.0000 R=    0.0000 C=    0.0000
 XYZ=    3.3443   -1.9323   -9.6765 Q=    0.4100 A=    0.0000 R=    0.0000 C=    0.0000
 XYZ=   -2.8798   -1.2890   -8.9896 Q=   -0.8200 A=    0.0000 R=    0.0000 C=    0.0000
 XYZ=   -2.8587   -2.0405   -9.6491 Q=    0.4100 A=    0.0000 R=    0.0000 C=    0.0000
 XYZ=   -3.1953   -1.6312   -8.1045 Q=    0.4100 A=    0.0000 R=    0.0000 C=    0.0000
 XYZ=    0.7862    5.4916    6.3474 Q=   -0.8200 A=    0.0000 R=    0.0000 C=    0.0000
 XYZ=    0.5421    5.9573    5.4967 Q=    0.4100 A=    0.0000 R=    0.0000 C=    0.0000
 XYZ=    0.0044    5.5051    6.9709 Q=    0.4100 A=    0.0000 R=    0.0000 C=    0.0000
 XYZ=   -3.2084   -4.7497   -6.7591 Q=   -0.8200 A=    0.0000 R=    0.0000 C=    0.0000
 XYZ=   -2.2160   -4.7994   -6.8713 Q=    0.4100 A=    0.0000 R=    0.0000 C=    0.0000
 XYZ=   -3.4813   -5.2904   -5.9633 Q=    0.4100 A=    0.0000 R=    0.0000 C=    0.0000
 XYZ=    2.7706    4.3781    6.0081 Q=   -0.8200 A=    0.0000 R=    0.0000 C=    0.0000
 XYZ=    3.4989    4.7224    6.6007 Q=    0.4100 A=    0.0000 R=    0.0000 C=    0.0000
 XYZ=    1.9103    4.8328    6.2388 Q=    0.4100 A=    0.0000 R=    0.0000 C=    0.0000
 XYZ=    8.5232   -3.1496    2.5590 Q=   -0.8200 A=    0.0000 R=    0.0000 C=    0.0000
 XYZ=    7.6504   -3.6122    2.7150 Q=    0.4100 A=    0.0000 R=    0.0000 C=    0.0000
 XYZ=    9.2064   -3.8175    2.2638 Q=    0.4100 A=    0.0000 R=    0.0000 C=    0.0000
 XYZ=    6.8778    4.4550    3.5330 Q=   -0.8200 A=    0.0000 R=    0.0000 C=    0.0000
 XYZ=    6.9860    4.1078    4.4645 Q=    0.4100 A=    0.0000 R=    0.0000 C=    0.0000
 XYZ=    6.0466    4.0728    3.1292 Q=    0.4100 A=    0.0000 R=    0.0000 C=    0.0000
 XYZ=    9.8570   -0.9955   -0.3375 Q=   -0.8200 A=    0.0000 R=    0.0000 C=    0.0000
 XYZ=   10.6699   -1.0520    0.2421 Q=    0.4100 A=    0.0000 R=    0.0000 C=    0.0000
 XYZ=    9.0404   -1.1554    0.2172 Q=    0.4100 A=    0.0000 R=    0.0000 C=    0.0000
 XYZ=    4.1613    2.3185   -7.3567 Q=   -0.8200 A=    0.0000 R=    0.0000 C=    0.0000
 XYZ=    4.6772    2.8139   -6.6577 Q=    0.4100 A=    0.0000 R=    0.0000 C=    0.0000
 XYZ=    4.4505    1.3613   -7.3686 Q=    0.4100 A=    0.0000 R=    0.0000 C=    0.0000
 XYZ=   -0.2623   -5.3705    5.8502 Q=   -0.8200 A=    0.0000 R=    0.0000 C=    0.0000
 XYZ=   -0.7352   -6.1899    6.1743 Q=    0.4100 A=    0.0000 R=    0.0000 C=    0.0000
 XYZ=   -0.2825   -4.6699    6.5636 Q=    0.4100 A=    0.0000 R=    0.0000 C=    0.0000
 XYZ=   -0.7282   -0.3643   -9.3270 Q=   -0.8200 A=    0.0000 R=    0.0000 C=    0.0000
 XYZ=   -0.2329   -1.1009   -9.7875 Q=    0.4100 A=    0.0000 R=    0.0000 C=    0.0000
 XYZ=   -1.5929   -0.7170   -8.9692 Q=    0.4100 A=    0.0000 R=    0.0000 C=    0.0000
 XYZ=   -6.8931    1.9281   -6.4198 Q=   -0.8200 A=    0.0000 R=    0.0000 C=    0.0000
 XYZ=   -7.3533    1.4326   -7.1564 Q=    0.4100 A=    0.0000 R=    0.0000 C=    0.0000
 XYZ=   -6.6345    1.2867   -5.6974 Q=    0.4100 A=    0.0000 R=    0.0000 C=    0.0000
 XYZ=    7.0282    2.8373   -4.4095 Q=   -0.8200 A=    0.0000 R=    0.0000 C=    0.0000
 XYZ=    7.1002    3.7733   -4.0647 Q=    0.4100 A=    0.0000 R=    0.0000 C=    0.0000
 XYZ=    7.6702    2.2502   -3.9164 Q=    0.4100 A=    0.0000 R=    0.0000 C=    0.0000
 XYZ=    4.7350   -0.7247    7.1330 Q=   -0.8200 A=    0.0000 R=    0.0000 C=    0.0000
 XYZ=    5.1855   -0.2974    7.9169 Q=    0.4100 A=    0.0000 R=    0.0000 C=    0.0000
 XYZ=    5.2531   -1.5320    6.8503 Q=    0.4100 A=    0.0000 R=    0.0000 C=    0.0000
 XYZ=    7.1665   -5.6162   -3.8154 Q=   -0.8200 A=    0.0000 R=    0.0000 C=    0.0000
 XYZ=    7.3627   -5.3844   -4.7682 Q=    0.4100 A=    0.0000 R=    0.0000 C=    0.0000
 XYZ=    7.9493   -6.0980   -3.4216 Q=    0.4100 A=    0.0000 R=    0.0000 C=    0.0000
 XYZ=    5.2994    3.4348   -5.7142 Q=   -0.8200 A=    0.0000 R=    0.0000 C=    0.0000
 XYZ=    5.5617    4.1097   -6.4039 Q=    0.4100 A=    0.0000 R=    0.0000 C=    0.0000
 XYZ=    6.0933    3.2100   -5.1491 Q=    0.4100 A=    0.0000 R=    0.0000 C=    0.0000
 XYZ=    8.4419    1.6224   -3.0184 Q=   -0.8200 A=    0.0000 R=    0.0000 C=    0.0000
 XYZ=    8.9758    2.1975   -2.3985 Q=    0.4100 A=    0.0000 R=    0.0000 C=    0.0000
 XYZ=    8.8599    0.7156   -3.0746 Q=    0.4100 A=    0.0000 R=    0.0000 C=    0.0000
 XYZ=    8.1633   -2.8600   -5.8838 Q=   -0.8200 A=    0.0000 R=    0.0000 C=    0.0000
 XYZ=    7.8993   -2.0498   -5.3605 Q=    0.4100 A=    0.0000 R=    0.0000 C=    0.0000
 XYZ=    8.3540   -2.5981   -6.8299 Q=    0.4100 A=    0.0000 R=    0.0000 C=    0.0000
 XYZ=    5.4922   -3.5477   -7.1392 Q=   -0.8200 A=    0.0000 R=    0.0000 C=    0.0000
 XYZ=    6.3375   -3.9917   -6.8418 Q=    0.4100 A=    0.0000 R=    0.0000 C=    0.0000
 XYZ=    4.9912   -4.1604   -7.7506 Q=    0.4100 A=    0.0000 R=    0.0000 C=    0.0000
 XYZ=    6.2917    5.2267   -1.1971 Q=   -0.8200 A=    0.0000 R=    0.0000 C=    0.0000
 XYZ=    6.7520    4.4255   -0.8146 Q=    0.4100 A=    0.0000 R=    0.0000 C=    0.0000
 XYZ=    6.3704    5.9926   -0.5589 Q=    0.4100 A=    0.0000 R=    0.0000 C=    0.0000
 XYZ=   -4.6240    3.0866   -6.8943 Q=   -0.8200 A=    0.0000 R=    0.0000 C=    0.0000
 XYZ=   -5.5030    2.6766   -6.6508 Q=    0.4100 A=    0.0000 R=    0.0000 C=    0.0000
 XYZ=   -4.7158    4.0821   -6.9182 Q=    0.4100 A=    0.0000 R=    0.0000 C=    0.0000
 XYZ=    9.2346    1.6628    1.8668 Q=   -0.8200 A=    0.0000 R=    0.0000 C=    0.0000
 XYZ=    8.5072    1.0900    2.2447 Q=    0.4100 A=    0.0000 R=    0.0000 C=    0.0000
 XYZ=    9.0144    2.6260    2.0209 Q=    0.4100 A=    0.0000 R=    0.0000 C=    0.0000
 XYZ=    8.7544   -4.7311   -0.5424 Q=   -0.8200 A=    0.0000 R=    0.0000 C=    0.0000
 XYZ=    8.7277   -4.4977   -1.5144 Q=    0.4100 A=    0.0000 R=    0.0000 C=    0.0000
 XYZ=    8.6948   -5.7237   -0.4362 Q=    0.4100 A=    0.0000 R=    0.0000 C=    0.0000
 XYZ=    2.7509   -0.8051    8.5334 Q=   -0.8200 A=    0.0000 R=    0.0000 C=    0.0000
 XYZ=    3.1860   -0.9116    9.4274 Q=    0.4100 A=    0.0000 R=    0.0000 C=    0.0000
 XYZ=    3.4547   -0.7340    7.8265 Q=    0.4100 A=    0.0000 R=    0.0000 C=    0.0000
 XYZ=    0.8155    1.5890   -9.3780 Q=   -0.8200 A=    0.0000 R=    0.0000 C=    0.0000
 XYZ=    0.3468    2.4685   -9.2949 Q=    0.4100 A=    0.0000 R=    0.0000 C=    0.0000
 XYZ=    0.1421    0.8498   -9.3630 Q=    0.4100 A=    0.0000 R=    0.0000 C=    0.0000
 XYZ=   -7.2288    5.8251    0.6146 Q=   -0.8200 A=    0.0000 R=    0.0000 C=    0.0000
 XYZ=   -7.2832    6.8204    0.5336 Q=    0.4100 A=    0.0000 R=    0.0000 C=    0.0000
 XYZ=   -8.1387    5.4301    0.4878 Q=    0.4100 A=    0.0000 R=    0.0000 C=    0.0000
 XYZ=   -0.8700    5.3663   -7.7062 Q=   -0.8200 A=    0.0000 R=    0.0000 C=    0.0000
 XYZ=   -1.5792    5.1771   -7.0270 Q=    0.4100 A=    0.0000 R=    0.0000 C=    0.0000
 XYZ=    0.0266    5.1460   -7.3220 Q=    0.4100 A=    0.0000 R=    0.0000 C=    0.0000
 XYZ=   -8.9193    3.5988   -2.2221 Q=   -0.8200 A=    0.0000 R=    0.0000 C=    0.0000
 XYZ=   -8.2601    3.6747   -2.9702 Q=    0.4100 A=    0.0000 R=    0.0000 C=    0.0000
 XYZ=   -9.8209    3.3767   -2.5936 Q=    0.4100 A=    0.0000 R=    0.0000 C=    0.0000
 XYZ=    7.3352    3.1736    5.5140 Q=   -0.8200 A=    0.0000 R=    0.0000 C=    0.0000
 XYZ=    6.7057    2.5329    5.0744 Q=    0.4100 A=    0.0000 R=    0.0000 C=    0.0000
 XYZ=    8.2218    2.7308    5.6480 Q=    0.4100 A=    0.0000 R=    0.0000 C=    0.0000
 XYZ=   -7.5514   -3.6568    1.8075 Q=   -0.8200 A=    0.0000 R=    0.0000 C=    0.0000
 XYZ=   -6.9998   -4.2600    1.2314 Q=    0.4100 A=    0.0000 R=    0.0000 C=    0.0000
 XYZ=   -7.2081   -3.6870    2.7463 Q=    0.4100 A=    0.0000 R=    0.0000 C=    0.0000
 XYZ=   -0.1203    2.4940    9.0613 Q=   -0.8200 A=    0.0000 R=    0.0000 C=    0.0000
 XYZ=    0.4283    1.7784    8.6291 Q=    0.4100 A=    0.0000 R=    0.0000 C=    0.0000
 XYZ=   -1.0628    2.1757    9.1631 Q=    0.4100 A=    0.0000 R=    0.0000 C=    0.0000
 XYZ=   -3.0843   -1.0382    9.3054 Q=   -0.8200 A=    0.0000 R=    0.0000 C=    0.0000
 XYZ=   -2.6485   -1.0247    8.4055 Q=    0.4100 A=    0.0000 R=    0.0000 C=    0.0000
 XYZ=   -2.5624   -1.6302    9.9196 Q=    0.4100 A=    0.0000 R=    0.0000 C=    0.0000
 XYZ=    6.5332   -7.6710    0.5961 Q=   -0.8200 A=    0.0000 R=    0.0000 C=    0.0000
 XYZ=    6.1280   -7.2129    1.3873 Q=    0.4100 A=    0.0000 R=    0.0000 C=    0.0000
 XYZ=    7.0010   -8.5025    0.8959 Q=    0.4100 A=    0.0000 R=    0.0000 C=    0.0000
 XYZ=   -0.8593    8.1377    2.8407 Q=   -0.8200 A=    0.0000 R=    0.0000 C=    0.0000
 XYZ=   -0.9057    8.8968    3.4901 Q=    0.4100 A=    0.0000 R=    0.0000 C=    0.0000
 XYZ=   -1.7741    7.9475    2.4843 Q=    0.4100 A=    0.0000 R=    0.0000 C=    0.0000
 XYZ=    2.7440    7.3360    1.0458 Q=   -0.8200 A=    0.0000 R=    0.0000 C=    0.0000
 XYZ=    2.0721    8.0593    0.8860 Q=    0.4100 A=    0.0000 R=    0.0000 C=    0.0000
 XYZ=    3.6062    7.7429    1.3475 Q=    0.4100 A=    0.0000 R=    0.0000 C=    0.0000
 XYZ=    5.8804   -1.7215   -8.3663 Q=   -0.8200 A=    0.0000 R=    0.0000 C=    0.0000
 XYZ=    5.5710   -0.9271   -7.8436 Q=    0.4100 A=    0.0000 R=    0.0000 C=    0.0000
 XYZ=    5.6981   -2.5551   -7.8449 Q=    0.4100 A=    0.0000 R=    0.0000 C=    0.0000
 XYZ=   -2.4189    8.8788   -0.0497 Q=   -0.8200 A=    0.0000 R=    0.0000 C=    0.0000
 XYZ=   -1.6271    9.4504    0.1660 Q=    0.4100 A=    0.0000 R=    0.0000 C=    0.0000
 XYZ=   -2.6931    8.3681    0.7652 Q=    0.4100 A=    0.0000 R=    0.0000 C=    0.0000
 XYZ=    1.7249   -7.0752   -6.8510 Q=   -0.8200 A=    0.0000 R=    0.0000 C=    0.0000
 XYZ=    2.0991   -6.1581   -6.9890 Q=    0.4100 A=    0.0000 R=    0.0000 C=    0.0000
 XYZ=    2.4687   -7.7435   -6.8610 Q=    0.4100 A=    0.0000 R=    0.0000 C=    0.0000
 XYZ=   -7.7963    1.8597    5.6918 Q=   -0.8200 A=    0.0000 R=    0.0000 C=    0.0000
 XYZ=   -6.8556    1.5210    5.7132 Q=    0.4100 A=    0.0000 R=    0.0000 C=    0.0000
 XYZ=   -8.4138    1.1504    6.0318 Q=    0.4100 A=    0.0000 R=    0.0000 C=    0.0000
 XYZ=   -5.1879   -5.7648    2.2370 Q=   -0.8200 A=    0.0000 R=    0.0000 C=    0.0000
 XYZ=   -4.9495   -6.7254    2.0942 Q=    0.4100 A=    0.0000 R=    0.0000 C=    0.0000
 XYZ=   -5.8127   -5.4657    1.5158 Q=    0.4100 A=    0.0000 R=    0.0000 C=    0.0000
 XYZ=   -6.5653   -5.2935    0.5013 Q=   -0.8200 A=    0.0000 R=    0.0000 C=    0.0000
 XYZ=   -6.8068   -5.1152   -0.4527 Q=    0.4100 A=    0.0000 R=    0.0000 C=    0.0000
 XYZ=   -6.3165   -6.2562    0.6077 Q=    0.4100 A=    0.0000 R=    0.0000 C=    0.0000
 XYZ=   -6.8643   -3.4911    3.9962 Q=   -0.8200 A=    0.0000 R=    0.0000 C=    0.0000
 XYZ=   -7.3411   -3.1287    4.7971 Q=    0.4100 A=    0.0000 R=    0.0000 C=    0.0000
 XYZ=   -6.4420   -4.3675    4.2281 Q=    0.4100 A=    0.0000 R=    0.0000 C=    0.0000
 XYZ=   -5.6668   -5.4028    4.4434 Q=   -0.8200 A=    0.0000 R=    0.0000 C=    0.0000
 XYZ=   -4.9017   -5.0202    4.9615 Q=    0.4100 A=    0.0000 R=    0.0000 C=    0.0000
 XYZ=   -5.3793   -5.5721    3.5006 Q=    0.4100 A=    0.0000 R=    0.0000 C=    0.0000
 XYZ=   -0.9072   -3.9059   -9.6918 Q=   -0.8200 A=    0.0000 R=    0.0000 C=    0.0000
 XYZ=   -0.1132   -3.3026   -9.7663 Q=    0.4100 A=    0.0000 R=    0.0000 C=    0.0000
 XYZ=   -0.9622   -4.2712   -8.7624 Q=    0.4100 A=    0.0000 R=    0.0000 C=    0.0000
 XYZ=   -9.0826    1.7124    3.6730 Q=   -0.8200 A=    0.0000 R=    0.0000 C=    0.0000
 XYZ=   -8.7416    2.2630    2.9111 Q=    0.4100 A=    0.0000 R=    0.0000 C=    0.0000
 XYZ=   -8.4875    1.8370    4.4669 Q=    0.4100 A=    0.0000 R=    0.0000 C=    0.0000
 XYZ=    5.5595    6.4620    3.7453 Q=   -0.8200 A=    0.0000 R=    0.0000 C=    0.0000
 XYZ=    4.7164    5.9311    3.6603 Q=    0.4100 A=    0.0000 R=    0.0000 C=    0.0000
 XYZ=    6.3425    5.8409    3.7796 Q=    0.4100 A=    0.0000 R=    0.0000 C=    0.0000
 XYZ=   -7.5573   -5.0612   -1.6074 Q=   -0.8200 A=    0.0000 R=    0.0000 C=    0.0000
 XYZ=   -8.5186   -5.0495   -1.3323 Q=    0.4100 A=    0.0000 R=    0.0000 C=    0.0000
 XYZ=   -7.4175   -4.4152   -2.3579 Q=    0.4100 A=    0.0000 R=    0.0000 C=    0.0000
 XYZ=    0.6761   -2.2301  -10.2538 Q=   -0.8200 A=    0.0000 R=    0.0000 C=    0.0000
 XYZ=    1.4314   -1.8726   -9.7045 Q=    0.4100 A=    0.0000 R=    0.0000 C=    0.0000
 XYZ=    0.8245   -1.9987  -11.2153 Q=    0.4100 A=    0.0000 R=    0.0000 C=    0.0000
 XYZ=   -6.7622   -0.9148    7.4795 Q=   -0.8200 A=    0.0000 R=    0.0000 C=    0.0000
 XYZ=   -6.4234   -0.3075    6.7608 Q=    0.4100 A=    0.0000 R=    0.0000 C=    0.0000
 XYZ=   -5.9999   -1.2031    8.0589 Q=    0.4100 A=    0.0000 R=    0.0000 C=    0.0000
 XYZ=   -0.6239    4.9339    8.4253 Q=   -0.8200 A=    0.0000 R=    0.0000 C=    0.0000
 XYZ=   -0.4617    5.3737    9.3086 Q=    0.4100 A=    0.0000 R=    0.0000 C=    0.0000
 XYZ=   -0.3274    3.9798    8.4686 Q=    0.4100 A=    0.0000 R=    0.0000 C=    0.0000
 XYZ=    7.2297    4.8151   -3.3025 Q=   -0.8200 A=    0.0000 R=    0.0000 C=    0.0000
 XYZ=    6.9057    5.0531   -2.3869 Q=    0.4100 A=    0.0000 R=    0.0000 C=    0.0000
 XYZ=    8.2296    4.8016   -3.3092 Q=    0.4100 A=    0.0000 R=    0.0000 C=    0.0000
 XYZ=   -4.3484    2.8533   -9.1522 Q=   -0.8200 A=    0.0000 R=    0.0000 C=    0.0000
 XYZ=   -4.3142    2.7328   -8.1601 Q=    0.4100 A=    0.0000 R=    0.0000 C=    0.0000
 XYZ=   -4.1121    1.9914   -9.6009 Q=    0.4100 A=    0.0000 R=    0.0000 C=    0.0000
 XYZ=   -0.1878    3.9244   -9.5328 Q=   -0.8200 A=    0.0000 R=    0.0000 C=    0.0000
 XYZ=   -0.5910    4.3018   -8.6991 Q=    0.4100 A=    0.0000 R=    0.0000 C=    0.0000
 XYZ=    0.2103    4.6644  -10.0750 Q=    0.4100 A=    0.0000 R=    0.0000 C=    0.0000
 XYZ=   -9.6758   -0.5892    3.1436 Q=   -0.8200 A=    0.0000 R=    0.0000 C=    0.0000
 XYZ=   -8.9082   -1.0116    2.6615 Q=    0.4100 A=    0.0000 R=    0.0000 C=    0.0000
 XYZ=   -9.4292    0.3423    3.4112 Q=    0.4100 A=    0.0000 R=    0.0000 C=    0.0000
 XYZ=   10.1621    1.3170   -0.0831 Q=   -0.8200 A=    0.0000 R=    0.0000 C=    0.0000
 XYZ=    9.9811    0.3592   -0.3065 Q=    0.4100 A=    0.0000 R=    0.0000 C=    0.0000
 XYZ=    9.7717    1.5298    0.8127 Q=    0.4100 A=    0.0000 R=    0.0000 C=    0.0000
 XYZ=    9.5307    2.9919   -1.5744 Q=   -0.8200 A=    0.0000 R=    0.0000 C=    0.0000
 XYZ=    8.7427    3.3798   -1.0962 Q=    0.4100 A=    0.0000 R=    0.0000 C=    0.0000
 XYZ=    9.9517    2.2858   -1.0048 Q=    0.4100 A=    0.0000 R=    0.0000 C=    0.0000
 XYZ=   -2.0690   -8.3112    4.2671 Q=   -0.8200 A=    0.0000 R=    0.0000 C=    0.0000
 XYZ=   -1.9116   -8.8192    3.4202 Q=    0.4100 A=    0.0000 R=    0.0000 C=    0.0000
 XYZ=   -1.8902   -7.3397    4.1111 Q=    0.4100 A=    0.0000 R=    0.0000 C=    0.0000
 XYZ=    7.6194   -5.0552   -6.1335 Q=   -0.8200 A=    0.0000 R=    0.0000 C=    0.0000
 XYZ=    7.9471   -4.1156   -6.0340 Q=    0.4100 A=    0.0000 R=    0.0000 C=    0.0000
 XYZ=    8.3723   -5.6406   -6.4343 Q=    0.4100 A=    0.0000 R=    0.0000 C=    0.0000
 XYZ=   -3.9246    0.6188  -10.0029 Q=   -0.8200 A=    0.0000 R=    0.0000 C=    0.0000
 XYZ=   -3.5731   -0.0972   -9.3996 Q=    0.4100 A=    0.0000 R=    0.0000 C=    0.0000
 XYZ=   -4.8173    0.3446  -10.3605 Q=    0.4100 A=    0.0000 R=    0.0000 C=    0.0000
 XYZ=    8.4344   -7.0384   -0.5459 Q=   -0.8200 A=    0.0000 R=    0.0000 C=    0.0000
 XYZ=    7.6143   -7.2317   -0.0074 Q=    0.4100 A=    0.0000 R=    0.0000 C=    0.0000
 XYZ=    9.2093   -7.5436   -0.1660 Q=    0.4100 A=    0.0000 R=    0.0000 C=    0.0000
 XYZ=    8.6354    3.9637    2.1697 Q=   -0.8200 A=    0.0000 R=    0.0000 C=    0.0000
 XYZ=    7.8703    4.2555    2.7438 Q=    0.4100 A=    0.0000 R=    0.0000 C=    0.0000
 XYZ=    9.4701    4.4281    2.4656 Q=    0.4100 A=    0.0000 R=    0.0000 C=    0.0000
 XYZ=   -1.8432    0.7877  -10.9842 Q=   -0.8200 A=    0.0000 R=    0.0000 C=    0.0000
 XYZ=   -1.2375    0.5165  -10.2361 Q=    0.4100 A=    0.0000 R=    0.0000 C=    0.0000
 XYZ=   -2.7932    0.7494  -10.6744 Q=    0.4100 A=    0.0000 R=    0.0000 C=    0.0000
 XYZ=   -0.3503    9.8339   -2.6188 Q=   -0.8200 A=    0.0000 R=    0.0000 C=    0.0000
 XYZ=   -0.6367   10.3732   -3.4107 Q=    0.4100 A=    0.0000 R=    0.0000 C=    0.0000
 XYZ=   -0.7805    8.9319   -2.6565 Q=    0.4100 A=    0.0000 R=    0.0000 C=    0.0000
 XYZ=   10.3288   -4.2921    1.2830 Q=   -0.8200 A=    0.0000 R=    0.0000 C=    0.0000
 XYZ=    9.7083   -4.3736    0.5030 Q=    0.4100 A=    0.0000 R=    0.0000 C=    0.0000
 XYZ=   10.7475   -5.1808    1.4701 Q=    0.4100 A=    0.0000 R=    0.0000 C=    0.0000
 XYZ=  -11.0642    0.8134   -0.2253 Q=   -0.8200 A=    0.0000 R=    0.0000 C=    0.0000
 XYZ=  -11.0963    1.7477   -0.5804 Q=    0.4100 A=    0.0000 R=    0.0000 C=    0.0000
 XYZ=  -10.1126    0.5116   -0.1670 Q=    0.4100 A=    0.0000 R=    0.0000 C=    0.0000
 XYZ=   -5.6956    9.0842   -2.5757 Q=   -0.8200 A=    0.0000 R=    0.0000 C=    0.0000
 XYZ=   -5.4551    9.4165   -1.6637 Q=    0.4100 A=    0.0000 R=    0.0000 C=    0.0000
 XYZ=   -5.4532    8.1171   -2.6527 Q=    0.4100 A=    0.0000 R=    0.0000 C=    0.0000
 XYZ=   -0.5417   -7.0571   -6.9094 Q=   -0.8200 A=    0.0000 R=    0.0000 C=    0.0000
 XYZ=   -0.9989   -7.6052   -6.2089 Q=    0.4100 A=    0.0000 R=    0.0000 C=    0.0000
 XYZ=    0.4455   -7.2085   -6.8594 Q=    0.4100 A=    0.0000 R=    0.0000 C=    0.0000
 XYZ=   -5.0389    5.6789   -6.6339 Q=   -0.8200 A=    0.0000 R=    0.0000 C=    0.0000
 XYZ=   -5.2644    6.3293   -5.9085 Q=    0.4100 A=    0.0000 R=    0.0000 C=    0.0000
 XYZ=   -5.8023    5.6193   -7.2771 Q=    0.4100 A=    0.0000 R=    0.0000 C=    0.0000
 XYZ=   -9.5977    4.7828    2.7211 Q=   -0.8200 A=    0.0000 R=    0.0000 C=    0.0000
 XYZ=   -9.0287    4.0386    2.3710 Q=    0.4100 A=    0.0000 R=    0.0000 C=    0.0000
 XYZ=  -10.2428    4.4208    3.3941 Q=    0.4100 A=    0.0000 R=    0.0000 C=    0.0000
 XYZ=   -7.8845    4.0623   -6.1752 Q=   -0.8200 A=    0.0000 R=    0.0000 C=    0.0000
 XYZ=   -7.4808    4.6935   -6.8376 Q=    0.4100 A=    0.0000 R=    0.0000 C=    0.0000
 XYZ=   -7.5036    3.1478   -6.3114 Q=    0.4100 A=    0.0000 R=    0.0000 C=    0.0000
 XYZ=    1.7147    0.2313  -10.9676 Q=   -0.8200 A=    0.0000 R=    0.0000 C=    0.0000
 XYZ=    1.5771    0.9541  -10.2904 Q=    0.4100 A=    0.0000 R=    0.0000 C=    0.0000
 XYZ=    2.3029   -0.4794  -10.5816 Q=    0.4100 A=    0.0000 R=    0.0000 C=    0.0000
 XYZ=   -4.2785   -6.6709   -5.6230 Q=   -0.8200 A=    0.0000 R=    0.0000 C=    0.0000
 XYZ=   -4.5108   -7.1344   -6.4782 Q=    0.4100 A=    0.0000 R=    0.0000 C=    0.0000
 XYZ=   -5.1180   -6.4292   -5.1363 Q=    0.4100 A=    0.0000 R=    0.0000 C=    0.0000
 XYZ=   -0.7298    8.4667    6.1219 Q=   -0.8200 A=    0.0000 R=    0.0000 C=    0.0000
 XYZ=   -0.1614    7.7384    5.7389 Q=    0.4100 A=    0.0000 R=    0.0000 C=    0.0000
 XYZ=   -1.5658    8.0716    6.5027 Q=    0.4100 A=    0.0000 R=    0.0000 C=    0.0000
 XYZ=   -9.5840    5.3368   -0.7099 Q=   -0.8200 A=    0.0000 R=    0.0000 C=    0.0000
 XYZ=   -9.3645    6.2654   -1.0092 Q=    0.4100 A=    0.0000 R=    0.0000 C=    0.0000
 XYZ=   -9.2919    4.6836   -1.4085 Q=    0.4100 A=    0.0000 R=    0.0000 C=    0.0000
 XYZ=   -7.0588    5.2581    4.6455 Q=   -0.8200 A=    0.0000 R=    0.0000 C=    0.0000
 XYZ=   -7.7259    5.9096    4.2841 Q=    0.4100 A=    0.0000 R=    0.0000 C=    0.0000
 XYZ=   -7.5283    4.5784    5.2090 Q=    0.4100 A=    0.0000 R=    0.0000 C=    0.0000
 XYZ=   -2.4240   -8.3831   -5.7220 Q=   -0.8200 A=    0.0000 R=    0.0000 C=    0.0000
 XYZ=   -2.9423   -7.5567   -5.5019 Q=    0.4100 A=    0.0000 R=    0.0000 C=    0.0000
 XYZ=   -2.7699   -8.7765   -6.5739 Q=    0.4100 A=    0.0000 R=    0.0000 C=    0.0000
 XYZ=   -4.0591   -5.6252   -8.7854 Q=   -0.8200 A=    0.0000 R=    0.0000 C=    0.0000
 XYZ=   -4.4064   -4.8536   -9.3183 Q=    0.4100 A=    0.0000 R=    0.0000 C=    0.0000
 XYZ=   -3.7829   -5.3065   -7.8786 Q=    0.4100 A=    0.0000 R=    0.0000 C=    0.0000
 XYZ=   -3.0452    4.4848    9.0476 Q=   -0.8200 A=    0.0000 R=    0.0000 C=    0.0000
 XYZ=   -2.1338    4.7274    8.7152 Q=    0.4100 A=    0.0000 R=    0.0000 C=    0.0000
 XYZ=   -3.0306    3.5530    9.4104 Q=    0.4100 A=    0.0000 R=    0.0000 C=    0.0000
 XYZ=   -0.4216   10.1864   -0.2941 Q=   -0.8200 A=    0.0000 R=    0.0000 C=    0.0000
 XYZ=   -0.3536   10.1928   -1.2918 Q=    0.4100 A=    0.0000 R=    0.0000 C=    0.0000
 XYZ=    0.1021    9.4166    0.0707 Q=    0.4100 A=    0.0000 R=    0.0000 C=    0.0000
 XYZ=    5.8942    6.1873   -4.6977 Q=   -0.8200 A=    0.0000 R=    0.0000 C=    0.0000
 XYZ=    6.4892    5.7239   -4.0410 Q=    0.4100 A=    0.0000 R=    0.0000 C=    0.0000
 XYZ=    6.1238    5.8885   -5.6240 Q=    0.4100 A=    0.0000 R=    0.0000 C=    0.0000
 XYZ=   -0.5872   -4.0844    9.7308 Q=   -0.8200 A=    0.0000 R=    0.0000 C=    0.0000
 XYZ=   -0.5136   -4.0768    8.7335 Q=    0.4100 A=    0.0000 R=    0.0000 C=    0.0000
 XYZ=    0.2934   -4.3429   10.1280 Q=    0.4100 A=    0.0000 R=    0.0000 C=    0.0000
 XYZ=    4.4498   -4.6754   -8.8278 Q=   -0.8200 A=    0.0000 R=    0.0000 C=    0.0000
 XYZ=    4.9104   -5.4727   -9.2180 Q=    0.4100 A=    0.0000 R=    0.0000 C=    0.0000
 XYZ=    4.1907   -4.0478   -9.5620 Q=    0.4100 A=    0.0000 R=    0.0000 C=    0.0000
 XYZ=    9.1917   -6.6700   -2.6761 Q=   -0.8200 A=    0.0000 R=    0.0000 C=    0.0000
 XYZ=    8.7266   -6.9826   -1.8478 Q=    0.4100 A=    0.0000 R=    0.0000 C=    0.0000
 XYZ=    9.8699   -7.3502   -2.9544 Q=    0.4100 A=    0.0000 R=    0.0000 C=    0.0000
 XYZ=    4.2592    1.8714    8.6327 Q=   -0.8200 A=    0.0000 R=    0.0000 C=    0.0000
 XYZ=    5.0228    2.3187    8.1669 Q=    0.4100 A=    0.0000 R=    0.0000 C=    0.0000
 XYZ=    3.9764    2.4250    9.4161 Q=    0.4100 A=    0.0000 R=    0.0000 C=    0.0000
 XYZ=   -5.0579   -2.1998    8.7877 Q=   -0.8200 A=    0.0000 R=    0.0000 C=    0.0000
 XYZ=   -4.2878   -1.6167    9.0465 Q=    0.4100 A=    0.0000 R=    0.0000 C=    0.0000
 XYZ=   -5.0121   -3.0585    9.2982 Q=    0.4100 A=    0.0000 R=    0.0000 C=    0.0000
 XYZ=   -7.1678    8.1044    0.3389 Q=   -0.8200 A=    0.0000 R=    0.0000 C=    0.0000
 XYZ=   -6.4734    8.4102   -0.3125 Q=    0.4100 A=    0.0000 R=    0.0000 C=    0.0000
 XYZ=   -7.4583    8.8770    0.9035 Q=    0.4100 A=    0.0000 R=    0.0000 C=    0.0000
 XYZ=   -4.8084    9.7693   -0.5446 Q=   -0.8200 A=    0.0000 R=    0.0000 C=    0.0000
 XYZ=   -5.1615   10.4698    0.0755 Q=    0.4100 A=    0.0000 R=    0.0000 C=    0.0000
 XYZ=   -3.8547    9.5727   -0.3169 Q=    0.4100 A=    0.0000 R=    0.0000 C=    0.0000
 XYZ=   -3.0277   -8.6153    0.2638 Q=   -0.8200 A=    0.0000 R=    0.0000 C=    0.0000
 XYZ=   -2.3447   -9.1113    0.8001 Q=    0.4100 A=    0.0000 R=    0.0000 C=    0.0000
 XYZ=   -3.5547   -9.2635   -0.2859 Q=    0.4100 A=    0.0000 R=    0.0000 C=    0.0000
 XYZ=    5.8984    3.2235    7.7520 Q=   -0.8200 A=    0.0000 R=    0.0000 C=    0.0000
 XYZ=    6.5600    3.1270    7.0084 Q=    0.4100 A=    0.0000 R=    0.0000 C=    0.0000
 XYZ=    6.3772    3.4721    8.5940 Q=    0.4100 A=    0.0000 R=    0.0000 C=    0.0000
 XYZ=    4.5400   -2.5948  -10.1391 Q=   -0.8200 A=    0.0000 R=    0.0000 C=    0.0000
 XYZ=    4.9554   -2.7714  -11.0314 Q=    0.4100 A=    0.0000 R=    0.0000 C=    0.0000
 XYZ=    5.2515   -2.3373   -9.4853 Q=    0.4100 A=    0.0000 R=    0.0000 C=    0.0000
 XYZ=   -4.9673    5.6316    8.3569 Q=   -0.8200 A=    0.0000 R=    0.0000 C=    0.0000
 XYZ=   -5.0474    5.6677    7.3607 Q=    0.4100 A=    0.0000 R=    0.0000 C=    0.0000
 XYZ=   -4.1045    5.1916    8.6061 Q=    0.4100 A=    0.0000 R=    0.0000 C=    0.0000
 XYZ=    7.6159   -8.0016    3.6647 Q=   -0.8200 A=    0.0000 R=    0.0000 C=    0.0000
 XYZ=    6.6512   -7.7606    3.5584 Q=    0.4100 A=    0.0000 R=    0.0000 C=    0.0000
 XYZ=    7.7486   -8.4678    4.5394 Q=    0.4100 A=    0.0000 R=    0.0000 C=    0.0000
 XYZ=   -4.0269    9.5871   -4.4412 Q=   -0.8200 A=    0.0000 R=    0.0000 C=    0.0000
 XYZ=   -4.7389    9.4488   -3.7528 Q=    0.4100 A=    0.0000 R=    0.0000 C=    0.0000
 XYZ=   -3.7576    8.7035   -4.8243 Q=    0.4100 A=    0.0000 R=    0.0000 C=    0.0000
 XYZ=   -2.9839   -3.1114  -10.5491 Q=   -0.8200 A=    0.0000 R=    0.0000 C=    0.0000
 XYZ=   -2.1445   -3.5722  -10.2605 Q=    0.4100 A=    0.0000 R=    0.0000 C=    0.0000
 XYZ=   -2.9522   -2.9480  -11.5352 Q=    0.4100 A=    0.0000 R=    0.0000 C=    0.0000
 XYZ=    4.3669    5.0056    7.4873 Q=   -0.8200 A=    0.0000 R=    0.0000 C=    0.0000
 XYZ=    4.8413    5.8847    7.4406 Q=    0.4100 A=    0.0000 R=    0.0000 C=    0.0000
 XYZ=    5.0380    4.2685    7.5657 Q=    0.4100 A=    0.0000 R=    0.0000 C=    0.0000
 XYZ=   -4.6761   -8.1160    2.1431 Q=   -0.8200 A=    0.0000 R=    0.0000 C=    0.0000
 XYZ=   -5.3388   -8.1521    1.3951 Q=    0.4100 A=    0.0000 R=    0.0000 C=    0.0000
 XYZ=   -3.7545   -8.2496    1.7786 Q=    0.4100 A=    0.0000 R=    0.0000 C=    0.0000
 XYZ=    5.6258    0.1037    9.1851 Q=   -0.8200 A=    0.0000 R=    0.0000 C=    0.0000
 XYZ=    5.0127    0.8770    9.0234 Q=    0.4100 A=    0.0000 R=    0.0000 C=    0.0000
 XYZ=    6.4229    0.4131    9.7036 Q=    0.4100 A=    0.0000 R=    0.0000 C=    0.0000
 XYZ=   -2.4347    2.3821   10.0781 Q=   -0.8200 A=    0.0000 R=    0.0000 C=    0.0000
 XYZ=   -3.1802    1.7424   10.2651 Q=    0.4100 A=    0.0000 R=    0.0000 C=    0.0000
 XYZ=   -2.1667    2.8388   10.9264 Q=    0.4100 A=    0.0000 R=    0.0000 C=    0.0000
 XYZ=   -1.5310   -7.3682    6.3716 Q=   -0.8200 A=    0.0000 R=    0.0000 C=    0.0000
 XYZ=   -2.3267   -7.0849    6.9071 Q=    0.4100 A=    0.0000 R=    0.0000 C=    0.0000
 XYZ=   -1.8116   -8.0435    5.6895 Q=    0.4100 A=    0.0000 R=    0.0000 C=    0.0000
 XYZ=   -6.2894    7.0878    6.1060 Q=   -0.8200 A=    0.0000 R=    0.0000 C=    0.0000
 XYZ=   -7.1603    7.4927    6.3846 Q=    0.4100 A=    0.0000 R=    0.0000 C=    0.0000
 XYZ=   -6.4557    6.3773    5.4221 Q=    0.4100 A=    0.0000 R=    0.0000 C=    0.0000
 XYZ=   -4.0228    0.6758   10.6163 Q=   -0.8200 A=    0.0000 R=    0.0000 C=    0.0000
 XYZ=   -3.6034    0.0238    9.9846 Q=    0.4100 A=    0.0000 R=    0.0000 C=    0.0000
 XYZ=   -4.7763    0.2320   11.1015 Q=    0.4100 A=    0.0000 R=    0.0000 C=    0.0000
 XYZ=   -8.0065   -2.5370    6.2415 Q=   -0.8200 A=    0.0000 R=    0.0000 C=    0.0000
 XYZ=   -8.8213   -2.1460    5.8134 Q=    0.4100 A=    0.0000 R=    0.0000 C=    0.0000
 XYZ=   -7.6311   -1.8853    6.9005 Q=    0.4100 A=    0.0000 R=    0.0000 C=    0.0000
 XYZ=   -1.9157  -10.0121   -3.8575 Q=   -0.8200 A=    0.0000 R=    0.0000 C=    0.0000
 XYZ=   -1.7374   -9.5551   -2.9860 Q=    0.4100 A=    0.0000 R=    0.0000 C=    0.0000
 XYZ=   -2.2240   -9.3390   -4.5298 Q=    0.4100 A=    0.0000 R=    0.0000 C=    0.0000
 XYZ=   -1.9742    6.3415   -9.5610 Q=   -0.8200 A=    0.0000 R=    0.0000 C=    0.0000
 XYZ=   -2.4858    5.5605   -9.9191 Q=    0.4100 A=    0.0000 R=    0.0000 C=    0.0000
 XYZ=   -1.4608    6.0601   -8.7502 Q=    0.4100 A=    0.0000 R=    0.0000 C=    0.0000
 XYZ=    1.2046    3.6052   10.8665 Q=   -0.8200 A=    0.0000 R=    0.0000 C=    0.0000
 XYZ=    2.1744    3.3949   10.7423 Q=    0.4100 A=    0.0000 R=    0.0000 C=    0.0000
 XYZ=    0.6912    3.2956   10.0661 Q=    0.4100 A=    0.0000 R=    0.0000 C=    0.0000
 XYZ=   -1.2078    3.0650  -11.5188 Q=   -0.8200 A=    0.0000 R=    0.0000 C=    0.0000
 XYZ=   -0.6768    3.2713  -10.6969 Q=    0.4100 A=    0.0000 R=    0.0000 C=    0.0000
 XYZ=   -1.5586    2.1302  -11.4629 Q=    0.4100 A=    0.0000 R=    0.0000 C=    0.0000
 XYZ=    8.1992   -2.5638   -8.9516 Q=   -0.8200 A=    0.0000 R=    0.0000 C=    0.0000
 XYZ=    7.4251   -1.9555   -8.7760 Q=    0.4100 A=    0.0000 R=    0.0000 C=    0.0000
 XYZ=    7.8610   -3.4543   -9.2559 Q=    0.4100 A=    0.0000 R=    0.0000 C=    0.0000
 XYZ=   -8.2569    4.1770    6.5151 Q=   -0.8200 A=    0.0000 R=    0.0000 C=    0.0000
 XYZ=   -8.2972    4.3002    7.5067 Q=    0.4100 A=    0.0000 R=    0.0000 C=    0.0000
 XYZ=   -8.1109    3.2103    6.3050 Q=    0.4100 A=    0.0000 R=    0.0000 C=    0.0000
 XYZ=    5.2167    8.3076    1.9271 Q=   -0.8200 A=    0.0000 R=    0.0000 C=    0.0000
 XYZ=    5.6849    9.1627    2.1498 Q=    0.4100 A=    0.0000 R=    0.0000 C=    0.0000
 XYZ=    5.3819    7.6386    2.6518 Q=    0.4100 A=    0.0000 R=    0.0000 C=    0.0000
 XYZ=    6.5422    7.2566    0.2184 Q=   -0.8200 A=    0.0000 R=    0.0000 C=    0.0000
 XYZ=    5.8912    7.7282    0.8133 Q=    0.4100 A=    0.0000 R=    0.0000 C=    0.0000
 XYZ=    7.3534    7.0043    0.7460 Q=    0.4100 A=    0.0000 R=    0.0000 C=    0.0000
 XYZ=   -9.0527   -5.8406    2.4954 Q=   -0.8200 A=    0.0000 R=    0.0000 C=    0.0000
 XYZ=   -9.7654   -6.0244    1.8184 Q=    0.4100 A=    0.0000 R=    0.0000 C=    0.0000
 XYZ=   -8.6048   -4.9726    2.2806 Q=    0.4100 A=    0.0000 R=    0.0000 C=    0.0000
 XYZ=   11.0943    2.1859    3.4219 Q=   -0.8200 A=    0.0000 R=    0.0000 C=    0.0000
 XYZ=   11.7897    1.4675    3.3983 Q=    0.4100 A=    0.0000 R=    0.0000 C=    0.0000
 XYZ=   10.3617    1.9618    2.7792 Q=    0.4100 A=    0.0000 R=    0.0000 C=    0.0000
 XYZ=    8.4580   -3.3678    7.6818 Q=   -0.8200 A=    0.0000 R=    0.0000 C=    0.0000
 XYZ=    7.7977   -3.8411    7.0987 Q=    0.4100 A=    0.0000 R=    0.0000 C=    0.0000
 XYZ=    8.4582   -3.7842    8.5911 Q=    0.4100 A=    0.0000 R=    0.0000 C=    0.0000
 XYZ=    9.6779    4.9535   -2.8499 Q=   -0.8200 A=    0.0000 R=    0.0000 C=    0.0000
 XYZ=    9.9621    5.6262   -2.1667 Q=    0.4100 A=    0.0000 R=    0.0000 C=    0.0000
 XYZ=    9.8519    4.0319   -2.5029 Q=    0.4100 A=    0.0000 R=    0.0000 C=    0.0000
 XYZ=   -6.6030   -6.4066   -5.0127 Q=   -0.8200 A=    0.0000 R=    0.0000 C=    0.0000
 XYZ=   -7.2830   -5.6755   -4.9571 Q=    0.4100 A=    0.0000 R=    0.0000 C=    0.0000
 XYZ=   -6.7533   -7.0588   -4.2697 Q=    0.4100 A=    0.0000 R=    0.0000 C=    0.0000
 XYZ=   -2.7708    7.8364    6.9325 Q=   -0.8200 A=    0.0000 R=    0.0000 C=    0.0000
 XYZ=   -3.6104    8.1898    6.5199 Q=    0.4100 A=    0.0000 R=    0.0000 C=    0.0000
 XYZ=   -3.0028    7.2334    7.6958 Q=    0.4100 A=    0.0000 R=    0.0000 C=    0.0000
 XYZ=   -7.8189   -3.0532   -6.7167 Q=   -0.8200 A=    0.0000 R=    0.0000 C=    0.0000
 XYZ=   -7.2556   -3.5032   -7.4097 Q=    0.4100 A=    0.0000 R=    0.0000 C=    0.0000
 XYZ=   -8.5304   -2.5123   -7.1654 Q=    0.4100 A=    0.0000 R=    0.0000 C=    0.0000
 XYZ=   -3.0306    4.5301  -10.5094 Q=   -0.8200 A=    0.0000 R=    0.0000 C=    0.0000
 XYZ=   -3.4898    3.8380   -9.9524 Q=    0.4100 A=    0.0000 R=    0.0000 C=    0.0000
 XYZ=   -2.2637    4.1113  -10.9959 Q=    0.4100 A=    0.0000 R=    0.0000 C=    0.0000
 XYZ=   -7.0443   -7.4523   -3.0029 Q=   -0.8200 A=    0.0000 R=    0.0000 C=    0.0000
 XYZ=   -7.3502   -6.6723   -2.4570 Q=    0.4100 A=    0.0000 R=    0.0000 C=    0.0000
 XYZ=   -7.7844   -8.1213   -3.0720 Q=    0.4100 A=    0.0000 R=    0.0000 C=    0.0000
 XYZ=   -3.6800    9.4634    3.4167 Q=   -0.8200 A=    0.0000 R=    0.0000 C=    0.0000
 XYZ=   -4.1038    8.9939    4.1912 Q=    0.4100 A=    0.0000 R=    0.0000 C=    0.0000
 XYZ=   -4.2681   10.2163    3.1209 Q=    0.4100 A=    0.0000 R=    0.0000 C=    0.0000
 XYZ=   11.5726   -0.4877    1.1572 Q=   -0.8200 A=    0.0000 R=    0.0000 C=    0.0000
 XYZ=   11.4002    0.3526    0.6431 Q=    0.4100 A=    0.0000 R=    0.0000 C=    0.0000
 XYZ=   11.9192   -0.2569    2.0664 Q=    0.4100 A=    0.0000 R=    0.0000 C=    0.0000
 XYZ=   -9.0143    0.0512    7.2008 Q=   -0.8200 A=    0.0000 R=    0.0000 C=    0.0000
 XYZ=   -9.6464   -0.4605    6.6188 Q=    0.4100 A=    0.0000 R=    0.0000 C=    0.0000
 XYZ=   -8.1373   -0.4277    7.2419 Q=    0.4100 A=    0.0000 R=    0.0000 C=    0.0000
 XYZ=   -8.6305    6.6849    3.8240 Q=   -0.8200 A=    0.0000 R=    0.0000 C=    0.0000
 XYZ=   -9.2175    6.7154    4.6330 Q=    0.4100 A=    0.0000 R=    0.0000 C=    0.0000
 XYZ=   -8.9779    5.9978    3.1859 Q=    0.4100 A=    0.0000 R=    0.0000 C=    0.0000
 XYZ=  -11.0334    4.3085    0.8298 Q=   -0.8200 A=    0.0000 R=    0.0000 C=    0.0000
 XYZ=  -10.5209    4.7511    0.0939 Q=    0.4100 A=    0.0000 R=    0.0000 C=    0.0000
 XYZ=  -10.5874    4.4947    1.7053 Q=    0.4100 A=    0.0000 R=    0.0000 C=    0.0000
 XYZ=   -3.3064   -6.3941    7.5113 Q=   -0.8200 A=    0.0000 R=    0.0000 C=    0.0000
 XYZ=   -2.8814   -6.1601    8.3857 Q=    0.4100 A=    0.0000 R=    0.0000 C=    0.0000
 XYZ=   -4.2354   -6.7280    7.6710 Q=    0.4100 A=    0.0000 R=    0.0000 C=    0.0000
 XYZ=   -6.9935   -6.4885    6.0947 Q=   -0.8200 A=    0.0000 R=    0.0000 C=    0.0000
 XYZ=   -6.2907   -6.1992    5.4447 Q=    0.4100 A=    0.0000 R=    0.0000 C=    0.0000
 XYZ=   -7.6980   -5.7818    6.1603 Q=    0.4100 A=    0.0000 R=    0.0000 C=    0.0000
 XYZ=   -1.4102   10.0714    4.3561 Q=   -0.8200 A=    0.0000 R=    0.0000 C=    0.0000
 XYZ=   -2.3810   10.0997    4.1179 Q=    0.4100 A=    0.0000 R=    0.0000 C=    0.0000
 XYZ=   -1.2666    9.4080    5.0906 Q=    0.4100 A=    0.0000 R=    0.0000 C=    0.0000
 XYZ=    8.0841    5.4197    6.1579 Q=   -0.8200 A=    0.0000 R=    0.0000 C=    0.0000
 XYZ=    7.7540    4.4905    5.9914 Q=    0.4100 A=    0.0000 R=    0.0000 C=    0.0000
 XYZ=    7.9429    5.6563    7.1193 Q=    0.4100 A=    0.0000 R=    0.0000 C=    0.0000
 XYZ=  -11.7832   -0.0311    2.1633 Q=   -0.8200 A=    0.0000 R=    0.0000 C=    0.0000
 XYZ=  -11.7514    0.4040    1.2634 Q=    0.4100 A=    0.0000 R=    0.0000 C=    0.0000
 XYZ=  -10.9126   -0.4892    2.3429 Q=    0.4100 A=    0.0000 R=    0.0000 C=    0.0000
 XYZ=   -1.9318   -2.2399   10.9593 Q=   -0.8200 A=    0.0000 R=    0.0000 C=    0.0000
 XYZ=   -1.4630   -2.8746   10.3450 Q=    0.4100 A=    0.0000 R=    0.0000 C=    0.0000
 XYZ=   -2.4100   -2.7559   11.6699 Q=    0.4100 A=    0.0000 R=    0.0000 C=    0.0000
 XYZ=   -6.3071   -7.6922    0.4735 Q=   -0.8200 A=    0.0000 R=    0.0000 C=    0.0000
 XYZ=   -6.9938   -8.0003    1.1320 Q=    0.4100 A=    0.0000 R=    0.0000 C=    0.0000
 XYZ=   -6.3581   -8.2570   -0.3501 Q=    0.4100 A=    0.0000 R=    0.0000 C=    0.0000
 XYZ=   -8.2658   -4.9362   -5.1876 Q=   -0.8200 A=    0.0000 R=    0.0000 C=    0.0000
 XYZ=   -8.2880   -4.1278   -5.7758 Q=    0.4100 A=    0.0000 R=    0.0000 C=    0.0000
 XYZ=   -8.7586   -4.7445   -4.3388 Q=    0.4100 A=    0.0000 R=    0.0000 C=    0.0000
 XYZ=    0.3179   -5.4832  -11.1352 Q=   -0.8200 A=    0.0000 R=    0.0000 C=    0.0000
 XYZ=   -0.3473   -4.9584  -10.6040 Q=    0.4100 A=    0.0000 R=    0.0000 C=    0.0000
 XYZ=    1.2022   -5.0165  -11.1162 Q=    0.4100 A=    0.0000 R=    0.0000 C=    0.0000
 XYZ=  -11.4715    1.6430    3.8005 Q=   -0.8200 A=    0.0000 R=    0.0000 C=    0.0000
 XYZ=  -10.4754    1.6515    3.8885 Q=    0.4100 A=    0.0000 R=    0.0000 C=    0.0000
 XYZ=  -11.7427    0.9327    3.1509 Q=    0.4100 A=    0.0000 R=    0.0000 C=    0.0000
 XYZ=   -4.6215    8.5015    5.8029 Q=   -0.8200 A=    0.0000 R=    0.0000 C=    0.0000
 XYZ=   -5.3823    7.8525    5.8002 Q=    0.4100 A=    0.0000 R=    0.0000 C=    0.0000
 XYZ=   -4.9788    9.4337    5.8601 Q=    0.4100 A=    0.0000 R=    0.0000 C=    0.0000
 XYZ=   -6.2644    3.8733   -9.7539 Q=   -0.8200 A=    0.0000 R=    0.0000 C=    0.0000
 XYZ=   -6.7533    3.0543  -10.0545 Q=    0.4100 A=    0.0000 R=    0.0000 C=    0.0000
 XYZ=   -5.3948    3.6081   -9.3374 Q=    0.4100 A=    0.0000 R=    0.0000 C=    0.0000
 XYZ=   -1.9790   -9.8897    2.1310 Q=   -0.8200 A=    0.0000 R=    0.0000 C=    0.0000
 XYZ=   -1.1008  -10.3680    2.1339 Q=    0.4100 A=    0.0000 R=    0.0000 C=    0.0000
 XYZ=   -2.7031  -10.5241    1.8604 Q=    0.4100 A=    0.0000 R=    0.0000 C=    0.0000
 XYZ=    6.5606    5.4493   -6.7829 Q=   -0.8200 A=    0.0000 R=    0.0000 C=    0.0000
 XYZ=    7.5555    5.3541   -6.7482 Q=    0.4100 A=    0.0000 R=    0.0000 C=    0.0000
 XYZ=    6.2810    5.6896   -7.7125 Q=    0.4100 A=    0.0000 R=    0.0000 C=    0.0000
 XYZ=   -8.0103    1.0385   -8.1532 Q=   -0.8200 A=    0.0000 R=    0.0000 C=    0.0000
 XYZ=   -8.8691    1.5355   -8.2775 Q=    0.4100 A=    0.0000 R=    0.0000 C=    0.0000
 XYZ=   -8.1825    0.0553   -8.2138 Q=    0.4100 A=    0.0000 R=    0.0000 C=    0.0000
 XYZ=  -10.0317   -1.7464    5.3506 Q=   -0.8200 A=    0.0000 R=    0.0000 C=    0.0000
 XYZ=   -9.9913   -1.2009    4.5134 Q=    0.4100 A=    0.0000 R=    0.0000 C=    0.0000
 XYZ=  -10.7220   -2.4627    5.2486 Q=    0.4100 A=    0.0000 R=    0.0000 C=    0.0000
 XYZ=   11.9692   -2.8800    1.9368 Q=   -0.8200 A=    0.0000 R=    0.0000 C=    0.0000
 XYZ=   11.3630   -3.5985    1.5957 Q=    0.4100 A=    0.0000 R=    0.0000 C=    0.0000
 XYZ=   11.8281   -2.0448    1.4053 Q=    0.4100 A=    0.0000 R=    0.0000 C=    0.0000
 XYZ=   -5.0457   -4.1173  -10.2411 Q=   -0.8200 A=    0.0000 R=    0.0000 C=    0.0000
 XYZ=   -5.3697   -4.4741  -11.1174 Q=    0.4100 A=    0.0000 R=    0.0000 C=    0.0000
 XYZ=   -4.1240   -3.7455  -10.3529 Q=    0.4100 A=    0.0000 R=    0.0000 C=    0.0000
 XYZ=    0.7908   -1.3374  -12.3852 Q=   -0.8200 A=    0.0000 R=    0.0000 C=    0.0000
 XYZ=    1.1919   -0.5754  -11.8767 Q=    0.4100 A=    0.0000 R=    0.0000 C=    0.0000
 XYZ=    1.0278   -1.2536  -13.3531 Q=    0.4100 A=    0.0000 R=    0.0000 C=    0.0000
 XYZ=    9.2931    2.0329    6.2500 Q=   -0.8200 A=    0.0000 R=    0.0000 C=    0.0000
 XYZ=   10.1558    2.5382    6.2697 Q=    0.4100 A=    0.0000 R=    0.0000 C=    0.0000
 XYZ=    9.4586    1.0807    6.5067 Q=    0.4100 A=    0.0000 R=    0.0000 C=    0.0000
 XYZ=    4.2266   -1.1409   10.5377 Q=   -0.8200 A=    0.0000 R=    0.0000 C=    0.0000
 XYZ=    4.9416   -0.6592   10.0309 Q=    0.4100 A=    0.0000 R=    0.0000 C=    0.0000
 XYZ=    4.5482   -2.0566   10.7786 Q=    0.4100 A=    0.0000 R=    0.0000 C=    0.0000
 XYZ=  -10.1399    3.7468   -6.4675 Q=   -0.8200 A=    0.0000 R=    0.0000 C=    0.0000
 XYZ=  -10.6093    4.2443   -5.7380 Q=    0.4100 A=    0.0000 R=    0.0000 C=    0.0000
 XYZ=   -9.1592    3.9373   -6.4232 Q=    0.4100 A=    0.0000 R=    0.0000 C=    0.0000
 XYZ=    6.7940    7.3649    5.4529 Q=   -0.8200 A=    0.0000 R=    0.0000 C=    0.0000
 XYZ=    7.4082    6.6163    5.7029 Q=    0.4100 A=    0.0000 R=    0.0000 C=    0.0000
 XYZ=    6.2818    7.1153    4.6311 Q=    0.4100 A=    0.0000 R=    0.0000 C=    0.0000
 XYZ=   -0.2665   -8.8226   -8.8682 Q=   -0.8200 A=    0.0000 R=    0.0000 C=    0.0000
 XYZ=    0.0827   -8.3768   -9.6925 Q=    0.4100 A=    0.0000 R=    0.0000 C=    0.0000
 XYZ=   -0.3219   -8.1546   -8.1260 Q=    0.4100 A=    0.0000 R=    0.0000 C=    0.0000
 XYZ=    3.8098    5.5334    9.7973 Q=   -0.8200 A=    0.0000 R=    0.0000 C=    0.0000
 XYZ=    4.5939    6.0998   10.0510 Q=    0.4100 A=    0.0000 R=    0.0000 C=    0.0000
 XYZ=    3.8498    5.3276    8.8195 Q=    0.4100 A=    0.0000 R=    0.0000 C=    0.0000
 XYZ=   10.1927   -2.5131    6.2894 Q=   -0.8200 A=    0.0000 R=    0.0000 C=    0.0000
 XYZ=    9.3259   -2.7162    6.7448 Q=    0.4100 A=    0.0000 R=    0.0000 C=    0.0000
 XYZ=   10.9501   -2.7035    6.9140 Q=    0.4100 A=    0.0000 R=    0.0000 C=    0.0000
 XYZ=   -4.7744   -7.5844   -7.6231 Q=   -0.8200 A=    0.0000 R=    0.0000 C=    0.0000
 XYZ=   -4.3070   -6.9344   -8.2223 Q=    0.4100 A=    0.0000 R=    0.0000 C=    0.0000
 XYZ=   -4.2436   -8.4303   -7.5706 Q=    0.4100 A=    0.0000 R=    0.0000 C=    0.0000
 XYZ=   -6.8495   -6.3875   -7.3850 Q=   -0.8200 A=    0.0000 R=    0.0000 C=    0.0000
 XYZ=   -6.1308   -6.9840   -7.7422 Q=    0.4100 A=    0.0000 R=    0.0000 C=    0.0000
 XYZ=   -6.7755   -6.3361   -6.3890 Q=    0.4100 A=    0.0000 R=    0.0000 C=    0.0000
 XYZ=   -4.3072   -9.1525    4.1248 Q=   -0.8200 A=    0.0000 R=    0.0000 C=    0.0000
 XYZ=   -3.3946   -8.8204    4.3631 Q=    0.4100 A=    0.0000 R=    0.0000 C=    0.0000
 XYZ=   -4.6358   -8.6703    3.3127 Q=    0.4100 A=    0.0000 R=    0.0000 C=    0.0000
 XYZ=   -2.5891   -5.3997    9.6761 Q=   -0.8200 A=    0.0000 R=    0.0000 C=    0.0000
 XYZ=   -1.7624   -4.8494    9.7936 Q=    0.4100 A=    0.0000 R=    0.0000 C=    0.0000
 XYZ=   -3.3950   -4.8252    9.8197 Q=    0.4100 A=    0.0000 R=    0.0000 C=    0.0000
 XYZ=  -11.2362    3.3926   -2.9913 Q=   -0.8200 A=    0.0000 R=    0.0000 C=    0.0000
 XYZ=  -11.4376    3.3443   -2.0130 Q=    0.4100 A=    0.0000 R=    0.0000 C=    0.0000
 XYZ=  -11.9246    2.8747   -3.4992 Q=    0.4100 A=    0.0000 R=    0.0000 C=    0.0000
 XYZ=   -8.6811   -4.7597    6.2889 Q=   -0.8200 A=    0.0000 R=    0.0000 C=    0.0000
 XYZ=   -9.4327   -5.0273    5.6859 Q=    0.4100 A=    0.0000 R=    0.0000 C=    0.0000
 XYZ=   -8.4844   -3.7871    6.1647 Q=    0.4100 A=    0.0000 R=    0.0000 C=    0.0000
 XYZ=    8.2748   -9.2748    1.5823 Q=   -0.8200 A=    0.0000 R=    0.0000 C=    0.0000
 XYZ=    9.1223   -8.9820    1.1396 Q=    0.4100 A=    0.0000 R=    0.0000 C=    0.0000
 XYZ=    8.1035   -8.7036    2.3851 Q=    0.4100 A=    0.0000 R=    0.0000 C=    0.0000
 XYZ=   -1.6115   -0.7359  -12.7405 Q=   -0.8200 A=    0.0000 R=    0.0000 C=    0.0000
 XYZ=   -1.8474   -0.0529  -12.0493 Q=    0.4100 A=    0.0000 R=    0.0000 C=    0.0000
 XYZ=   -0.7527   -1.1821  -12.4887 Q=    0.4100 A=    0.0000 R=    0.0000 C=    0.0000
 XYZ=   -6.9622    5.4175   -8.0623 Q=   -0.8200 A=    0.0000 R=    0.0000 C=    0.0000
 XYZ=   -7.4879    6.1826   -8.4341 Q=    0.4100 A=    0.0000 R=    0.0000 C=    0.0000
 XYZ=   -6.8657    4.7086   -8.7610 Q=    0.4100 A=    0.0000 R=    0.0000 C=    0.0000
 XYZ=    9.7526   -7.1636    3.4124 Q=   -0.8200 A=    0.0000 R=    0.0000 C=    0.0000
 XYZ=    8.8166   -7.4968    3.5265 Q=    0.4100 A=    0.0000 R=    0.0000 C=    0.0000
 XYZ=    9.9616   -6.5034    4.1339 Q=    0.4100 A=    0.0000 R=    0.0000 C=    0.0000
 XYZ=   -9.9976   -5.1618   -1.5431 Q=   -0.8200 A=    0.0000 R=    0.0000 C=    0.0000
 XYZ=  -10.6460   -4.6139   -1.0144 Q=    0.4100 A=    0.0000 R=    0.0000 C=    0.0000
 XYZ=  -10.4138   -6.0419   -1.7718 Q=    0.4100 A=    0.0000 R=    0.0000 C=    0.0000
 XYZ=  -12.0618    2.9003   -0.6591 Q=   -0.8200 A=    0.0000 R=    0.0000 C=    0.0000
 XYZ=  -13.0350    2.7343   -0.4998 Q=    0.4100 A=    0.0000 R=    0.0000 C=    0.0000
 XYZ=  -11.6942    3.4633    0.0812 Q=    0.4100 A=    0.0000 R=    0.0000 C=    0.0000
 XYZ=   -3.7616    5.7763   10.7933 Q=   -0.8200 A=    0.0000 R=    0.0000 C=    0.0000
 XYZ=   -4.2816    6.5065   10.3500 Q=    0.4100 A=    0.0000 R=    0.0000 C=    0.0000
 XYZ=   -3.5008    5.0921   10.1122 Q=    0.4100 A=    0.0000 R=    0.0000 C=    0.0000
 XYZ=   10.1044   -0.1080    6.7807 Q=   -0.8200 A=    0.0000 R=    0.0000 C=    0.0000
 XYZ=   11.0251    0.2714    6.6891 Q=    0.4100 A=    0.0000 R=    0.0000 C=    0.0000
 XYZ=   10.1167   -1.0765    6.5320 Q=    0.4100 A=    0.0000 R=    0.0000 C=    0.0000
 XYZ=    3.5315    3.3700   10.3219 Q=   -0.8200 A=    0.0000 R=    0.0000 C=    0.0000
 XYZ=    4.2657    3.1378   10.9599 Q=    0.4100 A=    0.0000 R=    0.0000 C=    0.0000
 XYZ=    3.5517    4.3519   10.1336 Q=    0.4100 A=    0.0000 R=    0.0000 C=    0.0000
 XYZ=   11.5994   -1.9706    4.3610 Q=   -0.8200 A=    0.0000 R=    0.0000 C=    0.0000
 XYZ=   11.4602   -2.4673    3.5043 Q=    0.4100 A=    0.0000 R=    0.0000 C=    0.0000
 XYZ=   10.8815   -2.2196    5.0111 Q=    0.4100 A=    0.0000 R=    0.0000 C=    0.0000
 XYZ=   -6.3113   -9.3203   -1.2744 Q=   -0.8200 A=    0.0000 R=    0.0000 C=    0.0000
 XYZ=   -7.1188   -9.9055   -1.3494 Q=    0.4100 A=    0.0000 R=    0.0000 C=    0.0000
 XYZ=   -6.3845   -8.5663   -1.9271 Q=    0.4100 A=    0.0000 R=    0.0000 C=    0.0000
 XYZ=    8.3123    7.8997   -1.3776 Q=   -0.8200 A=    0.0000 R=    0.0000 C=    0.0000
 XYZ=    8.2336    8.0552   -2.3622 Q=    0.4100 A=    0.0000 R=    0.0000 C=    0.0000
 XYZ=    7.3987    7.8202   -0.9787 Q=    0.4100 A=    0.0000 R=    0.0000 C=    0.0000
 XYZ=   -0.0609    5.5097   10.6816 Q=   -0.8200 A=    0.0000 R=    0.0000 C=    0.0000
 XYZ=   -0.6809    5.5807   11.4631 Q=    0.4100 A=    0.0000 R=    0.0000 C=    0.0000
 XYZ=    0.5555    4.7335   10.8147 Q=    0.4100 A=    0.0000 R=    0.0000 C=    0.0000
 XYZ=   -6.0725    0.1529  -10.6496 Q=   -0.8200 A=    0.0000 R=    0.0000 C=    0.0000
 XYZ=   -6.6859    0.9325  -10.5234 Q=    0.4100 A=    0.0000 R=    0.0000 C=    0.0000
 XYZ=   -6.6079   -0.6570  -10.8893 Q=    0.4100 A=    0.0000 R=    0.0000 C=    0.0000
 XYZ=   -7.0570   -4.4243   -8.7415 Q=   -0.8200 A=    0.0000 R=    0.0000 C=    0.0000
 XYZ=   -6.3043   -4.4257   -9.3999 Q=    0.4100 A=    0.0000 R=    0.0000 C=    0.0000
 XYZ=   -7.0066   -5.2474   -8.1759 Q=    0.4100 A=    0.0000 R=    0.0000 C=    0.0000
 XYZ=   11.0585   -6.4604    1.6761 Q=   -0.8200 A=    0.0000 R=    0.0000 C=    0.0000
 XYZ=   10.4407   -6.7451    2.4091 Q=    0.4100 A=    0.0000 R=    0.0000 C=    0.0000
 XYZ=   12.0046   -6.5259    1.9934 Q=    0.4100 A=    0.0000 R=    0.0000 C=    0.0000
 XYZ=   10.6445   -5.5659    5.1097 Q=   -0.8200 A=    0.0000 R=    0.0000 C=    0.0000
 XYZ=   10.3736   -4.6033    5.1030 Q=    0.4100 A=    0.0000 R=    0.0000 C=    0.0000
 XYZ=   11.6115   -5.6383    5.3543 Q=    0.4100 A=    0.0000 R=    0.0000 C=    0.0000
 XYZ=    0.2720    6.1129  -10.5458 Q=   -0.8200 A=    0.0000 R=    0.0000 C=    0.0000
 XYZ=    0.7801    6.7792   -9.9999 Q=    0.4100 A=    0.0000 R=    0.0000 C=    0.0000
 XYZ=   -0.7032    6.3321  -10.5163 Q=    0.4100 A=    0.0000 R=    0.0000 C=    0.0000
 XYZ=   -0.1280   12.1304    0.8851 Q=   -0.8200 A=    0.0000 R=    0.0000 C=    0.0000
 XYZ=    0.7852   12.5320    0.8148 Q=    0.4100 A=    0.0000 R=    0.0000 C=    0.0000
 XYZ=   -0.2199   11.3924    0.2166 Q=    0.4100 A=    0.0000 R=    0.0000 C=    0.0000
 XYZ=   -8.9101   -1.2291   -8.0690 Q=   -0.8200 A=    0.0000 R=    0.0000 C=    0.0000
 XYZ=   -9.7799   -0.7379   -8.1171 Q=    0.4100 A=    0.0000 R=    0.0000 C=    0.0000
 XYZ=   -8.8707   -1.9095   -8.8009 Q=    0.4100 A=    0.0000 R=    0.0000 C=    0.0000
 XYZ=   -8.0998   -8.0195    2.6305 Q=   -0.8200 A=    0.0000 R=    0.0000 C=    0.0000
 XYZ=   -8.2283   -7.0282    2.6010 Q=    0.4100 A=    0.0000 R=    0.0000 C=    0.0000
 XYZ=   -8.0565   -8.3218    3.5828 Q=    0.4100 A=    0.0000 R=    0.0000 C=    0.0000
 XYZ=   -7.0552    5.6042    9.2717 Q=   -0.8200 A=    0.0000 R=    0.0000 C=    0.0000
 XYZ=   -7.4850    6.4869    9.0817 Q=    0.4100 A=    0.0000 R=    0.0000 C=    0.0000
 XYZ=   -6.1278    5.5977    8.8975 Q=    0.4100 A=    0.0000 R=    0.0000 C=    0.0000
[...]
    38  H   -0.000036   0.000000   0.000415  -0.000007   0.000008   0.000000
    39  O    0.001700   0.000849  -0.087581   0.063197   0.001076  -0.000821
    40  H   -0.000129  -0.000099   0.002232  -0.000559   0.000001  -0.000038
    41  H   -0.000021   0.000019   0.000253  -0.002810   0.000071   0.000004
    42  O    0.000086   0.000001  -0.008669   0.001222   0.000539   0.000000
    43  H   -0.000001   0.000000   0.000083  -0.000072   0.000021   0.000000
    44  H    0.000000   0.000000   0.000396   0.000004  -0.000004   0.000000
    45  O    0.000220   0.000034  -0.000276   0.000002   0.000000  -0.000945
    46  H   -0.000004   0.000000   0.000007   0.000000   0.000000   0.000014
    47  H   -0.000006   0.000000  -0.000004   0.000000   0.000000   0.000002
    48  O    0.008308   0.003011  -0.005004   0.000188   0.000202  -0.001094
    49  H   -0.000492  -0.000015   0.000266  -0.000003  -0.000002   0.000186
    50  H    0.001420   0.000271   0.002972   0.000131   0.000014   0.000489
              31         32         33         34         35         36
     1  C   -0.000012   0.000019  -0.040581   0.001522  -0.001768   0.002589
     2  H    0.000000  -0.000002  -0.000516   0.000032  -0.000008  -0.000268
     3  H    0.000000   0.000000  -0.003132  -0.000069  -0.000023  -0.000120
     4  C   -0.000036   0.000049   0.033402  -0.001826   0.004035  -0.003416
     5  H    0.000000   0.000000  -0.000007   0.000000   0.000000  -0.000001
     6  C   -0.000238   0.000601   0.000027  -0.000212  -0.000521  -0.001738
     7  H    0.000000   0.000001   0.000001   0.000000   0.000000   0.000000
     8  O   -0.000156   0.000572   0.000107   0.000002   0.000013   0.000035
     9  O    0.000050   0.000053   0.000000   0.000000   0.000000   0.000000
    10  H   -0.000001  -0.000003   0.000000   0.000000   0.000000   0.000000
    11  H   -0.000003  -0.000003   0.000000   0.000000   0.000000   0.000000
    12  O    0.000079   0.000178   0.000035   0.000000   0.000000   0.000018
    13  H    0.000001   0.000001  -0.000001   0.000000   0.000000   0.000001
    14  H   -0.000003  -0.000008   0.000000   0.000000   0.000000  -0.000001
    15  O    0.000001  -0.000003  -0.004499   0.000183   0.001604  -0.050202
    16  H    0.000000   0.000000  -0.000026   0.000000  -0.000041   0.001107
    17  H    0.000000  -0.000002  -0.000028  -0.000002  -0.000101   0.001336
    18  O    0.000000   0.000000  -0.108166   0.002747   0.001909  -0.012972
    19  H    0.000000   0.000000   0.008947   0.000012  -0.000891   0.002055
    20  H    0.000000   0.000000   0.004276   0.001321   0.000985  -0.000393
    21  O   -0.000013  -0.000303   0.000000   0.000000   0.000000   0.000000
    22  H   -0.000001   0.000014   0.000000   0.000000   0.000000   0.000000
    23  H    0.000000   0.000001   0.000000   0.000000   0.000000   0.000000
    24  O   -0.000978   0.064504   0.000004   0.000000   0.000001   0.000023
    25  H    0.000007   0.001454  -0.000008   0.000000   0.000000   0.000025
    26  H   -0.000059  -0.005567   0.000000   0.000000   0.000000   0.000000
    27  O   -0.000012   0.000057  -0.000226   0.000001  -0.000005  -0.000777
    28  H    0.000001   0.000099   0.000008   0.000000   0.000000   0.000022
    29  H    0.000000   0.000025   0.000008   0.000000   0.000000  -0.000005
    30  O    0.196541   0.152835   0.000000   0.000000   0.000000   0.000000
    31  H    0.168841  -0.002266   0.000000   0.000000   0.000000   0.000000
    32  H   -0.002266   0.198964   0.000000   0.000000   0.000000   0.000000
    33  O    0.000000   0.000000   8.957998   0.205420   0.166665  -0.072346
    34  H    0.000000   0.000000   0.205420   0.185705  -0.007140   0.002652
    35  H    0.000000   0.000000   0.166665  -0.007140   0.228608   0.053134
    36  O    0.000000   0.000000  -0.072346   0.002652   0.053134   9.008018
    37  H    0.000000   0.000000   0.000254  -0.000175  -0.003393   0.202659
    38  H    0.000000   0.000000   0.002439   0.000033  -0.003425   0.124711
    39  O    0.000017   0.000235  -0.000009   0.000000   0.000000   0.000007
    40  H    0.000000   0.000012   0.000000   0.000000   0.000000   0.000000
    41  H    0.000000   0.000001  -0.000002   0.000000   0.000000   0.000000
    42  O    0.000000   0.000000  -0.000415   0.000017  -0.000016   0.000018
    43  H    0.000000   0.000000   0.000311  -0.000003   0.000010   0.000020
    44  H    0.000000   0.000000   0.000041   0.000000   0.000000   0.000000
    45  O    0.000075   0.000082  -0.000091   0.000001   0.000024   0.001413
    46  H    0.000000  -0.000002  -0.000004   0.000000  -0.000006  -0.000775
    47  H   -0.000007  -0.000018  -0.000003   0.000000   0.000000  -0.000048
    48  O    0.000305  -0.000422   0.000036   0.000000  -0.000007  -0.001054
    49  H   -0.000110  -0.000263  -0.000001   0.000000   0.000000   0.000081
    50  H   -0.000046   0.000446   0.000000   0.000000   0.000000   0.000016
              37         38         39         40         41         42
     1  C   -0.000019  -0.000271  -0.000575   0.000021  -0.000131  -0.000339
     2  H    0.000002   0.000036   0.000010   0.000000   0.000000  -0.000001
     3  H    0.000000   0.000001   0.000000   0.000000   0.000000   0.000000
     4  C    0.000236  -0.000037   0.003258   0.000689  -0.000006  -0.000200
     5  H    0.000000   0.000000   0.000000   0.000000   0.000000   0.000000
     6  C    0.000022   0.000133  -0.000578   0.000292  -0.000160  -0.000255
     7  H    0.000000   0.000000   0.000000  -0.000001   0.000000   0.000000
     8  O    0.000000  -0.000009  -0.000604  -0.000122  -0.000008   0.000012
     9  O    0.000000   0.000000  -0.000006  -0.000001   0.000000   0.000000
    10  H    0.000000   0.000000   0.000000   0.000000   0.000000   0.000000
    11  H    0.000000   0.000000   0.000000   0.000000   0.000000   0.000000
    12  O    0.000000   0.000010   0.000000   0.000000   0.000000   0.000000
    13  H    0.000000   0.000000   0.000000   0.000000   0.000000   0.000000
    14  H    0.000000   0.000000   0.000000   0.000000   0.000000   0.000000
    15  O    0.000443   0.053459  -0.001018   0.000008   0.000007  -0.006583
    16  H   -0.000081  -0.000604   0.000022   0.000000   0.000000   0.000038
    17  H    0.000022   0.000071  -0.000188  -0.000003  -0.000022   0.001043
    18  O    0.000193   0.001484  -0.000409   0.000003  -0.000028  -0.074105
    19  H   -0.000068  -0.001126  -0.000013   0.000000  -0.000001   0.005407
    20  H   -0.000016  -0.000356   0.000004   0.000000   0.000000   0.000646
    21  O    0.000000   0.000000  -0.000125   0.000119  -0.000005   0.000000
    22  H    0.000000   0.000000  -0.000005   0.000001   0.000000   0.000000
    23  H    0.000000   0.000000   0.000025  -0.000002   0.000000   0.000000
    24  O    0.000000  -0.000059  -0.009666  -0.001367   0.000765  -0.000061
    25  H    0.000000  -0.000036   0.001700  -0.000129  -0.000021   0.000086
    26  H    0.000000   0.000000   0.000849  -0.000099   0.000019   0.000001
    27  O    0.000007   0.000415  -0.087581   0.002232   0.000253  -0.008669
    28  H    0.000000  -0.000007   0.063197  -0.000559  -0.002810   0.001222
    29  H    0.000000   0.000008   0.001076   0.000001   0.000071   0.000539
    30  O    0.000000   0.000000  -0.000821  -0.000038   0.000004   0.000000
    31  H    0.000000   0.000000   0.000017   0.000000   0.000000   0.000000
    32  H    0.000000   0.000000   0.000235   0.000012   0.000001   0.000000
    33  O    0.000254   0.002439  -0.000009   0.000000  -0.000002  -0.000415
    34  H   -0.000175   0.000033   0.000000   0.000000   0.000000   0.000017
    35  H   -0.003393  -0.003425   0.000000   0.000000   0.000000  -0.000016
    36  O    0.202659   0.124711   0.000007   0.000000   0.000000   0.000018
    37  H    0.163893  -0.007345   0.000000   0.000000   0.000000  -0.000001
    38  H   -0.007345   0.218091  -0.000007   0.000000   0.000000   0.000010
    39  O    0.000000  -0.000007   8.761373   0.213138   0.209606   0.001740
    40  H    0.000000   0.000000   0.213138   0.187874  -0.005872  -0.000095
    41  H    0.000000   0.000000   0.209606  -0.005872   0.176566   0.001917
    42  O   -0.000001   0.000010   0.001740  -0.000095   0.001917   8.871230
    43  H    0.000000   0.000011  -0.000140   0.000001  -0.000038   0.149657
    44  H    0.000000   0.000000   0.000069   0.000000  -0.000021   0.206643
    45  O    0.000005  -0.000290   0.000009   0.000000   0.000000   0.000000
    46  H   -0.000003   0.000046   0.000000   0.000000   0.000000   0.000000
    47  H    0.000000   0.000002   0.000000   0.000000   0.000000   0.000000
    48  O    0.000008   0.000131   0.000476  -0.000014   0.000006   0.000001
    49  H    0.000000   0.000001  -0.000021   0.000000   0.000000   0.000000
    50  H    0.000000  -0.000006   0.000090  -0.000001   0.000000   0.000000
              43         44         45         46         47         48
     1  C    0.000071   0.000009  -0.007836  -0.000066  -0.000995  -0.000601
     2  H   -0.000002   0.000000   0.000354  -0.000036  -0.000014  -0.000058
     3  H    0.000000   0.000000  -0.000002   0.000000  -0.000002   0.000000
     4  C    0.000105   0.000001   0.010208   0.000527   0.001176   0.000185
     5  H    0.000000   0.000000  -0.000003   0.000000   0.000000   0.000000
     6  C    0.000081  -0.000001  -0.004434  -0.000313   0.001187  -0.001194
     7  H    0.000000   0.000000   0.000001   0.000000  -0.000002   0.000000
     8  O   -0.000002   0.000000  -0.001070   0.000030  -0.000905  -0.000726
     9  O    0.000000   0.000000   0.000032   0.000000  -0.000007   0.000007
    10  H    0.000000   0.000000   0.000003   0.000000   0.000001   0.000000
    11  H    0.000000   0.000000  -0.000001   0.000000   0.000000   0.000000
    12  O    0.000000   0.000000  -0.089315   0.001997  -0.041552  -0.002184
    13  H    0.000000   0.000000  -0.001445  -0.000107   0.000858  -0.000005
    14  H    0.000000   0.000000   0.004605  -0.000010   0.007148   0.000127
    15  O    0.001553   0.000136   0.000753  -0.000058  -0.000012  -0.003244
    16  H    0.000004   0.000001  -0.000061   0.000003   0.000000   0.000103
    17  H    0.000218  -0.000002  -0.000040   0.000002   0.000000   0.000120
    18  O    0.063315   0.002165   0.000024   0.000000  -0.000001  -0.000061
    19  H   -0.003330  -0.000021   0.000002   0.000000   0.000000  -0.000008
    20  H    0.000213  -0.000014   0.000000   0.000000   0.000000   0.000001
    21  O    0.000000   0.000000  -0.000009   0.000000  -0.000005   0.000005
    22  H    0.000000   0.000000   0.000000   0.000000   0.000000  -0.000001
    23  H    0.000000   0.000000   0.000000   0.000000   0.000000   0.000000
    24  O    0.000001   0.000002   0.000062  -0.000102   0.000244  -0.068912
    25  H   -0.000001   0.000000   0.000220  -0.000004  -0.000006   0.008308
    26  H    0.000000   0.000000   0.000034   0.000000   0.000000   0.003011
    27  O    0.000083   0.000396  -0.000276   0.000007  -0.000004  -0.005004
    28  H   -0.000072   0.000004   0.000002   0.000000   0.000000   0.000188
    29  H    0.000021  -0.000004   0.000000   0.000000   0.000000   0.000202
    30  O    0.000000   0.000000  -0.000945   0.000014   0.000002  -0.001094
    31  H    0.000000   0.000000   0.000075   0.000000  -0.000007   0.000305
    32  H    0.000000   0.000000   0.000082  -0.000002  -0.000018  -0.000422
    33  O    0.000311   0.000041  -0.000091  -0.000004  -0.000003   0.000036
    34  H   -0.000003   0.000000   0.000001   0.000000   0.000000   0.000000
    35  H    0.000010   0.000000   0.000024  -0.000006   0.000000  -0.000007
    36  O    0.000020   0.000000   0.001413  -0.000775  -0.000048  -0.001054
    37  H    0.000000   0.000000   0.000005  -0.000003   0.000000   0.000008
    38  H    0.000011   0.000000  -0.000290   0.000046   0.000002   0.000131
    39  O   -0.000140   0.000069   0.000009   0.000000   0.000000   0.000476
    40  H    0.000001   0.000000   0.000000   0.000000   0.000000  -0.000014
    41  H   -0.000038  -0.000021   0.000000   0.000000   0.000000   0.000006
    42  O    0.149657   0.206643   0.000000   0.000000   0.000000   0.000001
    43  H    0.193648  -0.003277   0.000000   0.000000   0.000000   0.000000
    44  H   -0.003277   0.275434   0.000000   0.000000   0.000000   0.000000
    45  O    0.000000   0.000000   9.062769   0.209429   0.167833  -0.063872
    46  H    0.000000   0.000000   0.209429   0.162949  -0.006113  -0.001219
    47  H    0.000000   0.000000   0.167833  -0.006113   0.210935   0.001774
    48  O    0.000000   0.000000  -0.063872  -0.001219   0.001774   9.034782
    49  H    0.000000   0.000000   0.017188   0.000683   0.000245   0.166232
    50  H    0.000000   0.000000   0.002307  -0.000014  -0.000172   0.178641
              49         50
     1  C    0.000136   0.000107
     2  H   -0.000003  -0.000002
     3  H    0.000000   0.000000
     4  C   -0.000331  -0.000234
     5  H    0.000000   0.000000
     6  C    0.000303   0.000081
     7  H    0.000000   0.000000
     8  O   -0.000052   0.000023
     9  O    0.000000  -0.000001
    10  H    0.000000   0.000000
    11  H    0.000000   0.000000
    12  O    0.000524   0.000249
    13  H    0.000002   0.000000
    14  H   -0.000029  -0.000010
    15  O   -0.000038   0.000503
    16  H   -0.000004  -0.000041
    17  H    0.000004  -0.000067
    18  O    0.000001   0.000002
    19  H    0.000000   0.000000
    20  H    0.000000   0.000000
    21  O    0.000000  -0.000002
    22  H    0.000000   0.000000
    23  H    0.000000   0.000000
    24  O    0.001799   0.018617
    25  H   -0.000492   0.001420
    26  H   -0.000015   0.000271
    27  O    0.000266   0.002972
    28  H   -0.000003   0.000131
    29  H   -0.000002   0.000014
    30  O    0.000186   0.000489
    31  H   -0.000110  -0.000046
    32  H   -0.000263   0.000446
    33  O   -0.000001   0.000000
    34  H    0.000000   0.000000
    35  H    0.000000   0.000000
    36  O    0.000081   0.000016
    37  H    0.000000   0.000000
    38  H    0.000001  -0.000006
    39  O   -0.000021   0.000090
    40  H    0.000000  -0.000001
    41  H    0.000000   0.000000
    42  O    0.000000   0.000000
    43  H    0.000000   0.000000
    44  H    0.000000   0.000000
    45  O    0.017188   0.002307
    46  H    0.000683  -0.000014
    47  H    0.000245  -0.000172
    48  O    0.166232   0.178641
    49  H    0.232816  -0.003510
    50  H   -0.003510   0.169288
 Mulliken charges:
               1
     1  C   -0.368080
     2  H    0.258865
     3  H    0.230743
     4  C   -0.343244
     5  H    0.228832
     6  C    0.156879
     7  H    0.138764
     8  O   -0.307920
     9  O   -1.117389
    10  H    0.481498
    11  H    0.633606
    12  O   -1.060812
    13  H    0.606400
    14  H    0.501199
    15  O   -1.246050
    16  H    0.687108
    17  H    0.601158
    18  O   -1.243493
    19  H    0.551133
    20  H    0.643267
    21  O   -1.266650
    22  H    0.607735
    23  H    0.641132
    24  O   -1.204148
    25  H    0.617005
    26  H    0.579922
    27  O   -1.262855
    28  H    0.602107
    29  H    0.667256
    30  O   -1.247822
    31  H    0.638024
    32  H    0.588660
    33  O   -1.149919
    34  H    0.609779
    35  H    0.560357
    36  O   -1.255822
    37  H    0.643360
    38  H    0.612488
    39  O   -1.155135
    40  H    0.603911
    41  H    0.619911
    42  O   -1.149484
    43  H    0.597544
    44  H    0.518443
    45  O   -1.307746
    46  H    0.633147
    47  H    0.658458
    48  O   -1.244971
    49  H    0.584409
    50  H    0.628436
 Sum of Mulliken charges =   0.00000
 Mulliken charges with hydrogens summed into heavy atoms:
               1
     1  C    0.121528
     4  C   -0.114412
     6  C    0.295644
     8  O   -0.307920
     9  O   -0.002285
    12  O    0.046788
    15  O    0.042216
    18  O   -0.049093
    21  O   -0.017784
    24  O   -0.007221
    27  O    0.006508
    30  O   -0.021138
    33  O    0.020218
    36  O    0.000026
    39  O    0.068688
    42  O   -0.033497
    45  O   -0.016140
    48  O   -0.032126
 Electronic spatial extent (au):  <R**2>=           9083.6920
 Charge=              0.0000 electrons
 Dipole moment (field-independent basis, Debye):
    X=             -0.4420    Y=             -8.0276    Z=             -9.6800  Tot=             12.5833
 Quadrupole moment (field-independent basis, Debye-Ang):
   XX=            -96.8017   YY=            -80.8420   ZZ=           -135.3764
   XY=             -9.6083   XZ=            -14.7380   YZ=             15.3132
 Traceless Quadrupole moment (field-independent basis, Debye-Ang):
   XX=              7.5383   YY=             23.4980   ZZ=            -31.0364
   XY=             -9.6083   XZ=            -14.7380   YZ=             15.3132
 Octapole moment (field-independent basis, Debye-Ang**2):
  XXX=              9.4020  YYY=            -57.4849  ZZZ=           -160.7634  XYY=            -42.8399
  XXY=           -155.9788  XXZ=             33.8834  XZZ=            -29.4505  YZZ=             49.6167
  YYZ=            -66.3100  XYZ=            -47.1279
 Hexadecapole moment (field-independent basis, Debye-Ang**3):
 XXXX=          -4728.0657 YYYY=          -2282.7488 ZZZZ=          -2810.2591 XXXY=            155.3016
 XXXZ=            -45.5306 YYYX=              1.4269 YYYZ=             -0.1905 ZZZX=             75.6855
 ZZZY=            121.2789 XXYY=          -1004.3462 XXZZ=          -1047.5049 YYZZ=           -722.6612
 XXYZ=           -113.4387 YYXZ=            -35.6078 ZZXY=             39.8945
 N-N= 1.235282206637D+03 E-N=-6.435773135924D+03  KE= 1.249411337335D+03
 Leave Link  601 at Fri Sep 14 18:23:06 2018, MaxMem=    33554432 cpu:        12.9
 (Enter /usr/local/pacerepov1/gaussian/G09D01LINDA/g09/l9999.exe)

 Test job not archived.
 1\1\GINC-IW-K41-38-R\SP\RLC-wPBE TD-FC\6-31+G(d)\C3H32O15\ROOT\14-Sep-
 2018\0\\#p td=(nstates=15)/6-31+g(d) lc-wpbe charge\\Acroleina in Wate
 r\\0,1\C,0,0.485154,0.480443,-1.430142\H,0,1.461403,0.187773,-1.055732
 \H,0,0.429244,0.878853,-2.437062\C,0,-0.605127,0.346563,-0.658432\H,0,
 -1.591686,0.632893,-1.012412\C,0,-0.508516,-0.199107,0.712798\H,0,-1.4
 58487,-0.272107,1.272438\O,0,0.544883,-0.561317,1.236519\O,0,-1.506837
 ,-0.319306,3.669881\H,0,-1.244157,0.104924,2.803251\H,0,-1.009127,0.11
 7594,4.419181\O,0,1.669913,2.291534,1.784101\H,0,1.234473,3.062354,1.3
 19001\H,0,0.985563,1.794474,2.317591\O,0,5.029314,-1.292896,-1.973499\
 H,0,5.912344,-0.921336,-1.686689\H,0,4.709223,-1.953446,-1.294329\O,0,
 3.443023,-2.193226,-3.520809\H,0,4.122783,-2.043116,-2.802849\H,0,2.99
 9043,-1.325916,-3.746039\O,0,-0.392677,-2.472996,3.455961\H,0,-0.79822
 7,-1.560166,3.407671\H,0,-1.071867,-3.121686,3.799291\O,0,4.122983,-1.
 705006,2.049601\H,0,4.274833,-1.948646,1.091681\H,0,4.074303,-2.537496
 ,2.601521\O,0,4.485044,-2.752156,-0.040499\H,0,3.782613,-3.321856,0.38
 6211\H,0,5.333913,-3.274546,-0.121619\O,0,2.932693,-1.131786,4.166171\
 H,0,3.420903,-0.330456,4.511941\H,0,3.164233,-1.273456,3.203691\O,0,2.
 604273,-0.122076,-3.985199\H,0,2.133113,0.287604,-4.766389\H,0,3.10092
 3,0.587864,-3.485819\O,0,4.578413,1.061614,-2.914429\H,0,5.033874,1.08
 5944,-3.804359\H,0,4.701203,0.159024,-2.501749\O,0,2.763153,-4.214966,
 0.896451\H,0,1.889293,-4.049756,1.353751\H,0,2.608133,-4.745696,0.0631
 71\O,0,3.557393,-4.624966,-2.866229\H,0,3.268293,-3.709696,-3.146879\H
 ,0,3.416073,-5.265266,-3.621289\O,0,3.841743,2.349584,1.208731\H,0,3.8
 84593,2.477084,0.217791\H,0,2.885583,2.327264,1.500841\O,0,5.240063,0.
 246704,1.586031\H,0,4.617993,1.025374,1.668361\H,0,4.787223,-0.578726,
 1.923211\\Version=EM64L-G09RevD.01\State=1-A\HF=-1758.9889633\RMSD=2.8
 37e-09\PG=C01 [X(C3H32O15)]\\@


 REALITY IS FOR PEOPLE WHO CAN'T FACE SCIENCE FICTION.
 Job cpu time:       0 days  7 hours 16 minutes 12.0 seconds.
 File lengths (MBytes):  RWF=    792 Int=      0 D2E=      0 Chk=     96 Scr=      2
 Normal termination of Gaussian 09 at Fri Sep 14 18:23:11 2018.
