 Entering Gaussian System, Link 0=g09
 Input=Acroleina_water_15_16c.gjf
 Output=Acroleina_water_15_16c.log
 Initial command:
 /usr/local/pacerepov1/gaussian/G09D01LINDA/g09/l1.exe /nv/hp18/holiveira7/scratch/22411819/Gau-125318.inp -scrdir=/nv/hp18/holiveira7/scratch/22411819/
 Entering Link 1 = /usr/local/pacerepov1/gaussian/G09D01LINDA/g09/l1.exe PID=    125319.
  
 Copyright (c) 1988,1990,1992,1993,1995,1998,2003,2009,2013,
            Gaussian, Inc.  All Rights Reserved.
  
 This is part of the Gaussian(R) 09 program.  It is based on
 the Gaussian(R) 03 system (copyright 2003, Gaussian, Inc.),
 the Gaussian(R) 98 system (copyright 1998, Gaussian, Inc.),
 the Gaussian(R) 94 system (copyright 1995, Gaussian, Inc.),
 the Gaussian 92(TM) system (copyright 1992, Gaussian, Inc.),
 the Gaussian 90(TM) system (copyright 1990, Gaussian, Inc.),
 the Gaussian 88(TM) system (copyright 1988, Gaussian, Inc.),
 the Gaussian 86(TM) system (copyright 1986, Carnegie Mellon
 University), and the Gaussian 82(TM) system (copyright 1983,
 Carnegie Mellon University). Gaussian is a federally registered
 trademark of Gaussian, Inc.
  
 This software contains proprietary and confidential information,
 including trade secrets, belonging to Gaussian, Inc.
  
 This software is provided under written license and may be
 used, copied, transmitted, or stored only in accord with that
 written license.
  
 The following legend is applicable only to US Government
 contracts under FAR:
  
                    RESTRICTED RIGHTS LEGEND
  
 Use, reproduction and disclosure by the US Government is
 subject to restrictions as set forth in subparagraphs (a)
 and (c) of the Commercial Computer Software - Restricted
 Rights clause in FAR 52.227-19.
  
 Gaussian, Inc.
 340 Quinnipiac St., Bldg. 40, Wallingford CT 06492
  
  
 ---------------------------------------------------------------
 Warning -- This program may not be used in any manner that
 competes with the business of Gaussian, Inc. or will provide
 assistance to any competitor of Gaussian, Inc.  The licensee
 of this program is prohibited from giving any competitor of
 Gaussian, Inc. access to this program.  By using this program,
 the user acknowledges that Gaussian, Inc. is engaged in the
 business of creating and licensing software in the field of
 computational chemistry and represents and warrants to the
 licensee that it is not a competitor of Gaussian, Inc. and that
 it will not use this program in any manner prohibited above.
 ---------------------------------------------------------------
  

 Cite this work as:
 Gaussian 09, Revision D.01,
 M. J. Frisch, G. W. Trucks, H. B. Schlegel, G. E. Scuseria, 
 M. A. Robb, J. R. Cheeseman, G. Scalmani, V. Barone, B. Mennucci, 
 G. A. Petersson, H. Nakatsuji, M. Caricato, X. Li, H. P. Hratchian, 
 A. F. Izmaylov, J. Bloino, G. Zheng, J. L. Sonnenberg, M. Hada, 
 M. Ehara, K. Toyota, R. Fukuda, J. Hasegawa, M. Ishida, T. Nakajima, 
 Y. Honda, O. Kitao, H. Nakai, T. Vreven, J. A. Montgomery, Jr., 
 J. E. Peralta, F. Ogliaro, M. Bearpark, J. J. Heyd, E. Brothers, 
 K. N. Kudin, V. N. Staroverov, T. Keith, R. Kobayashi, J. Normand, 
 K. Raghavachari, A. Rendell, J. C. Burant, S. S. Iyengar, J. Tomasi, 
 M. Cossi, N. Rega, J. M. Millam, M. Klene, J. E. Knox, J. B. Cross, 
 V. Bakken, C. Adamo, J. Jaramillo, R. Gomperts, R. E. Stratmann, 
 O. Yazyev, A. J. Austin, R. Cammi, C. Pomelli, J. W. Ochterski, 
 R. L. Martin, K. Morokuma, V. G. Zakrzewski, G. A. Voth, 
 P. Salvador, J. J. Dannenberg, S. Dapprich, A. D. Daniels, 
 O. Farkas, J. B. Foresman, J. V. Ortiz, J. Cioslowski, 
 and D. J. Fox, Gaussian, Inc., Wallingford CT, 2013.
 
 ******************************************
 Gaussian 09:  EM64L-G09RevD.01 24-Apr-2013
                14-Sep-2018 
 ******************************************
 %chk=Acrolina_Din_16.chk
 %nprocshared=10
 Will use up to   10 processors via shared memory.
 -------------------------------------------
 #p td=(nstates=15)/6-31+g(d) lc-wpbe charge
 -------------------------------------------
 1/18=10,28=-2,38=1,125=101/1;
 2/12=2,17=6,18=5,40=1/2;
 3/5=1,6=6,7=11,11=9,16=1,25=1,30=1,74=-41/1,2,8,3;
 4//1;
 5/5=2,38=5/2;
 8/6=1,10=2,108=15/1;
 9/41=15,42=1,70=2/14;
 6/7=2,8=2,9=2,10=2/1;
 99/5=1,9=1/99;
 Leave Link    1 at Fri Sep 14 16:33:20 2018, MaxMem=           0 cpu:        17.1
 (Enter /usr/local/pacerepov1/gaussian/G09D01LINDA/g09/l101.exe)
 ------------------
 Acroleina in Water
 ------------------
 Symbolic Z-matrix:
 Charge =  0 Multiplicity = 1
 C                     0.48515   0.48044  -1.43014 
 H                     1.4614    0.18777  -1.05573 
 H                     0.42924   0.87885  -2.43706 
 C                    -0.60513   0.34656  -0.65843 
 H                    -1.59169   0.63289  -1.01241 
 C                    -0.50852  -0.19911   0.7128 
 H                    -1.45849  -0.27211   1.27244 
 O                     0.54488  -0.56132   1.23652 
 O                    -0.83779  -0.44337   3.40169 
 H                    -0.27247  -0.26911   2.59542 
 H                    -0.24856  -0.59911   4.19453 
 O                     2.87443   1.14115   0.92762 
 H                     2.65795   2.03968   0.54568 
 H                     2.03055   0.69108   1.21971 
 O                    -0.25535   3.82875  -0.79679 
 H                     0.2683    4.64663  -1.03531 
 H                    -1.20261   3.94008  -1.09738 
 O                     2.02624   3.159    -0.22952 
 H                     2.61207   3.5099   -0.96005 
 H                     1.06696   3.2673   -0.49057 
 O                     0.67974  -3.51791   2.48079 
 H                     0.08331  -2.9467    1.91683 
 H                     0.16062  -4.2975    2.83114 
 O                    -2.90169   4.90083   1.05091 
 H                    -3.86033   4.64199   1.1697 
 H                    -2.31529   4.12789   1.29335 
 O                    -2.81899  -1.63186   3.22672 
 H                    -2.80354  -2.29746   3.97291 
 H                    -1.96816  -1.10642   3.23114 
 O                     2.2761   -4.87227   1.63958 
 H                     1.65783  -4.155     1.961 
 H                     2.58669  -5.41795   2.41792 
 O                     0.58076  -0.9314    5.19296 
 H                     1.21976  -0.39253   5.74188 
 H                     1.08927  -1.46213   4.51491 
 O                    -2.57647   4.50802  -1.32679 
 H                    -3.46562   4.2036   -1.66853 
 H                    -2.65869   4.76073  -0.36273 
 O                     2.03655  -2.25226   3.89177 
 H                     2.89902  -1.99178   3.45777 
 H                     1.53223  -2.869     3.28735 
 O                     5.06014   1.32797   0.3183 
 H                     5.21092   1.35801  -0.66983 
 H                     4.10891   1.0807    0.50291 
 O                     3.65892   4.54747   1.04025 
 H                     2.87852   4.00355   0.73174 
 H                     3.90482   5.20918   0.33193 
 O                    -2.47764   1.69041  -5.78288 
 H                    -2.41319   2.47159  -5.16184 
 H                    -2.52593   2.01794  -6.72652 
 
 NAtoms=     50 NQM=       50 NQMF=       0 NMMI=      0 NMMIF=      0
                NMic=       0 NMicF=      0.
                    Isotopes and Nuclear Properties:
 (Nuclear quadrupole moments (NQMom) in fm**2, nuclear magnetic moments (NMagM)
  in nuclear magnetons)

  Atom         1           2           3           4           5           6           7           8           9          10
 IAtWgt=          12           1           1          12           1          12           1          16          16           1
 AtmWgt=  12.0000000   1.0078250   1.0078250  12.0000000   1.0078250  12.0000000   1.0078250  15.9949146  15.9949146   1.0078250
 NucSpn=           0           1           1           0           1           0           1           0           0           1
 AtZEff=   0.0000000   0.0000000   0.0000000   0.0000000   0.0000000   0.0000000   0.0000000   0.0000000   0.0000000   0.0000000
 NQMom=    0.0000000   0.0000000   0.0000000   0.0000000   0.0000000   0.0000000   0.0000000   0.0000000   0.0000000   0.0000000
 NMagM=    0.0000000   2.7928460   2.7928460   0.0000000   2.7928460   0.0000000   2.7928460   0.0000000   0.0000000   2.7928460
 AtZNuc=   6.0000000   1.0000000   1.0000000   6.0000000   1.0000000   6.0000000   1.0000000   8.0000000   8.0000000   1.0000000

  Atom        11          12          13          14          15          16          17          18          19          20
 IAtWgt=           1          16           1           1          16           1           1          16           1           1
 AtmWgt=   1.0078250  15.9949146   1.0078250   1.0078250  15.9949146   1.0078250   1.0078250  15.9949146   1.0078250   1.0078250
 NucSpn=           1           0           1           1           0           1           1           0           1           1
 AtZEff=   0.0000000   0.0000000   0.0000000   0.0000000   0.0000000   0.0000000   0.0000000   0.0000000   0.0000000   0.0000000
 NQMom=    0.0000000   0.0000000   0.0000000   0.0000000   0.0000000   0.0000000   0.0000000   0.0000000   0.0000000   0.0000000
 NMagM=    2.7928460   0.0000000   2.7928460   2.7928460   0.0000000   2.7928460   2.7928460   0.0000000   2.7928460   2.7928460
 AtZNuc=   1.0000000   8.0000000   1.0000000   1.0000000   8.0000000   1.0000000   1.0000000   8.0000000   1.0000000   1.0000000

  Atom        21          22          23          24          25          26          27          28          29          30
 IAtWgt=          16           1           1          16           1           1          16           1           1          16
 AtmWgt=  15.9949146   1.0078250   1.0078250  15.9949146   1.0078250   1.0078250  15.9949146   1.0078250   1.0078250  15.9949146
 NucSpn=           0           1           1           0           1           1           0           1           1           0
 AtZEff=   0.0000000   0.0000000   0.0000000   0.0000000   0.0000000   0.0000000   0.0000000   0.0000000   0.0000000   0.0000000
 NQMom=    0.0000000   0.0000000   0.0000000   0.0000000   0.0000000   0.0000000   0.0000000   0.0000000   0.0000000   0.0000000
 NMagM=    0.0000000   2.7928460   2.7928460   0.0000000   2.7928460   2.7928460   0.0000000   2.7928460   2.7928460   0.0000000
 AtZNuc=   8.0000000   1.0000000   1.0000000   8.0000000   1.0000000   1.0000000   8.0000000   1.0000000   1.0000000   8.0000000

  Atom        31          32          33          34          35          36          37          38          39          40
 IAtWgt=           1           1          16           1           1          16           1           1          16           1
 AtmWgt=   1.0078250   1.0078250  15.9949146   1.0078250   1.0078250  15.9949146   1.0078250   1.0078250  15.9949146   1.0078250
 NucSpn=           1           1           0           1           1           0           1           1           0           1
 AtZEff=   0.0000000   0.0000000   0.0000000   0.0000000   0.0000000   0.0000000   0.0000000   0.0000000   0.0000000   0.0000000
 NQMom=    0.0000000   0.0000000   0.0000000   0.0000000   0.0000000   0.0000000   0.0000000   0.0000000   0.0000000   0.0000000
 NMagM=    2.7928460   2.7928460   0.0000000   2.7928460   2.7928460   0.0000000   2.7928460   2.7928460   0.0000000   2.7928460
 AtZNuc=   1.0000000   1.0000000   8.0000000   1.0000000   1.0000000   8.0000000   1.0000000   1.0000000   8.0000000   1.0000000

  Atom        41          42          43          44          45          46          47          48          49          50
 IAtWgt=           1          16           1           1          16           1           1          16           1           1
 AtmWgt=   1.0078250  15.9949146   1.0078250   1.0078250  15.9949146   1.0078250   1.0078250  15.9949146   1.0078250   1.0078250
 NucSpn=           1           0           1           1           0           1           1           0           1           1
 AtZEff=   0.0000000   0.0000000   0.0000000   0.0000000   0.0000000   0.0000000   0.0000000   0.0000000   0.0000000   0.0000000
 NQMom=    0.0000000   0.0000000   0.0000000   0.0000000   0.0000000   0.0000000   0.0000000   0.0000000   0.0000000   0.0000000
 NMagM=    2.7928460   0.0000000   2.7928460   2.7928460   0.0000000   2.7928460   2.7928460   0.0000000   2.7928460   2.7928460
 AtZNuc=   1.0000000   8.0000000   1.0000000   1.0000000   8.0000000   1.0000000   1.0000000   8.0000000   1.0000000   1.0000000
 Background charge distribution read from input stream:
 Point Charges:
 XYZ=   -2.1451    3.6969   -4.4680 Q=   -0.8200 A=    0.0000 R=    0.0000 C=    0.0000
 XYZ=   -1.5903    4.2045   -3.8088 Q=    0.4100 A=    0.0000 R=    0.0000 C=    0.0000
 XYZ=   -3.1125    3.7934   -4.2336 Q=    0.4100 A=    0.0000 R=    0.0000 C=    0.0000
 XYZ=    4.3650   -5.0953    0.2402 Q=   -0.8200 A=    0.0000 R=    0.0000 C=    0.0000
 XYZ=    3.4948   -5.0335    0.7291 Q=    0.4100 A=    0.0000 R=    0.0000 C=    0.0000
 XYZ=    4.2669   -5.7161   -0.5376 Q=    0.4100 A=    0.0000 R=    0.0000 C=    0.0000
 XYZ=   -4.7527    3.5270   -1.7457 Q=   -0.8200 A=    0.0000 R=    0.0000 C=    0.0000
 XYZ=   -5.0254    4.2343   -1.0935 Q=    0.4100 A=    0.0000 R=    0.0000 C=    0.0000
 XYZ=   -5.2454    2.6803   -1.5445 Q=    0.4100 A=    0.0000 R=    0.0000 C=    0.0000
 XYZ=    4.3147   -1.7891    3.1667 Q=   -0.8200 A=    0.0000 R=    0.0000 C=    0.0000
 XYZ=    4.6887   -0.9264    3.5075 Q=    0.4100 A=    0.0000 R=    0.0000 C=    0.0000
 XYZ=    4.6811   -1.9740    2.2548 Q=    0.4100 A=    0.0000 R=    0.0000 C=    0.0000
 XYZ=    1.9891   -6.8277   -0.1742 Q=   -0.8200 A=    0.0000 R=    0.0000 C=    0.0000
 XYZ=    2.1485   -6.0878    0.4793 Q=    0.4100 A=    0.0000 R=    0.0000 C=    0.0000
 XYZ=    2.6846   -6.7938   -0.8920 Q=    0.4100 A=    0.0000 R=    0.0000 C=    0.0000
 XYZ=    1.2264    5.5497   -1.6259 Q=   -0.8200 A=    0.0000 R=    0.0000 C=    0.0000
 XYZ=    2.0604    5.0905   -1.9318 Q=    0.4100 A=    0.0000 R=    0.0000 C=    0.0000
 XYZ=    0.7578    5.9493   -2.4139 Q=    0.4100 A=    0.0000 R=    0.0000 C=    0.0000
 XYZ=   -1.8197    7.0306    1.1164 Q=   -0.8200 A=    0.0000 R=    0.0000 C=    0.0000
 XYZ=   -2.1219    7.7099    1.7853 Q=    0.4100 A=    0.0000 R=    0.0000 C=    0.0000
 XYZ=   -2.3448    6.1881    1.2366 Q=    0.4100 A=    0.0000 R=    0.0000 C=    0.0000
 XYZ=    2.7108    0.0625   -6.3639 Q=   -0.8200 A=    0.0000 R=    0.0000 C=    0.0000
 XYZ=    2.9335    0.5700   -7.1963 Q=    0.4100 A=    0.0000 R=    0.0000 C=    0.0000
 XYZ=    1.9311    0.4934   -5.9095 Q=    0.4100 A=    0.0000 R=    0.0000 C=    0.0000
 XYZ=    3.8062   -1.4296   -4.9754 Q=   -0.8200 A=    0.0000 R=    0.0000 C=    0.0000
 XYZ=    3.2707   -0.7860   -5.5223 Q=    0.4100 A=    0.0000 R=    0.0000 C=    0.0000
 XYZ=    4.5437   -0.9392   -4.5110 Q=    0.4100 A=    0.0000 R=    0.0000 C=    0.0000
 XYZ=   -1.9157    6.4755   -2.5511 Q=   -0.8200 A=    0.0000 R=    0.0000 C=    0.0000
 XYZ=   -2.0690    5.6660   -1.9843 Q=    0.4100 A=    0.0000 R=    0.0000 C=    0.0000
 XYZ=   -2.1525    7.2962   -2.0311 Q=    0.4100 A=    0.0000 R=    0.0000 C=    0.0000
 XYZ=   -0.7404   -2.5891    6.2220 Q=   -0.8200 A=    0.0000 R=    0.0000 C=    0.0000
 XYZ=   -0.4143   -1.7610    5.7659 Q=    0.4100 A=    0.0000 R=    0.0000 C=    0.0000
 XYZ=   -1.6470   -2.8267    5.8731 Q=    0.4100 A=    0.0000 R=    0.0000 C=    0.0000
 XYZ=   -4.3734    4.1783   -3.9756 Q=   -0.8200 A=    0.0000 R=    0.0000 C=    0.0000
 XYZ=   -4.5145    3.8055   -3.0584 Q=    0.4100 A=    0.0000 R=    0.0000 C=    0.0000
 XYZ=   -5.1186    3.8831   -4.5736 Q=    0.4100 A=    0.0000 R=    0.0000 C=    0.0000
 XYZ=   -4.7302    0.8559   -5.6081 Q=   -0.8200 A=    0.0000 R=    0.0000 C=    0.0000
 XYZ=   -4.7206   -0.0077   -5.1041 Q=    0.4100 A=    0.0000 R=    0.0000 C=    0.0000
 XYZ=   -3.7960    1.2024   -5.6934 Q=    0.4100 A=    0.0000 R=    0.0000 C=    0.0000
 XYZ=   -5.0056   -1.8457    2.3276 Q=   -0.8200 A=    0.0000 R=    0.0000 C=    0.0000
 XYZ=   -4.0620   -1.6099    2.5599 Q=    0.4100 A=    0.0000 R=    0.0000 C=    0.0000
 XYZ=   -5.2078   -2.7698    2.6523 Q=    0.4100 A=    0.0000 R=    0.0000 C=    0.0000
 XYZ=   -5.0913    4.1886    1.5861 Q=   -0.8200 A=    0.0000 R=    0.0000 C=    0.0000
 XYZ=   -5.5323    4.7759    0.9074 Q=    0.4100 A=    0.0000 R=    0.0000 C=    0.0000
 XYZ=   -5.3872    4.4579    2.5026 Q=    0.4100 A=    0.0000 R=    0.0000 C=    0.0000
 XYZ=    5.0294   -3.2490   -4.4773 Q=   -0.8200 A=    0.0000 R=    0.0000 C=    0.0000
 XYZ=    5.6852   -2.9858   -3.7696 Q=    0.4100 A=    0.0000 R=    0.0000 C=    0.0000
 XYZ=    4.4270   -2.4763   -4.6774 Q=    0.4100 A=    0.0000 R=    0.0000 C=    0.0000
 XYZ=    6.0368   -3.8496   -0.9654 Q=   -0.8200 A=    0.0000 R=    0.0000 C=    0.0000
 XYZ=    5.2777   -4.2616   -0.4613 Q=    0.4100 A=    0.0000 R=    0.0000 C=    0.0000
 XYZ=    6.7811   -4.5124   -1.0475 Q=    0.4100 A=    0.0000 R=    0.0000 C=    0.0000
 XYZ=    3.0097   -3.3497    5.8220 Q=   -0.8200 A=    0.0000 R=    0.0000 C=    0.0000
 XYZ=    2.6144   -2.9503    4.9948 Q=    0.4100 A=    0.0000 R=    0.0000 C=    0.0000
 XYZ=    3.1937   -2.6255    6.4866 Q=    0.4100 A=    0.0000 R=    0.0000 C=    0.0000
 XYZ=    5.2662   -0.1892    4.4689 Q=   -0.8200 A=    0.0000 R=    0.0000 C=    0.0000
 XYZ=    5.5820   -0.7798    5.2115 Q=    0.4100 A=    0.0000 R=    0.0000 C=    0.0000
 XYZ=    4.5129    0.3821    4.7948 Q=    0.4100 A=    0.0000 R=    0.0000 C=    0.0000
 XYZ=    0.5272    7.3287    1.7557 Q=   -0.8200 A=    0.0000 R=    0.0000 C=    0.0000
 XYZ=    0.4095    8.2160    2.2018 Q=    0.4100 A=    0.0000 R=    0.0000 C=    0.0000
 XYZ=   -0.3612    6.9927    1.4428 Q=    0.4100 A=    0.0000 R=    0.0000 C=    0.0000
 XYZ=    5.8159   -2.3723    1.2173 Q=   -0.8200 A=    0.0000 R=    0.0000 C=    0.0000
 XYZ=    6.0423   -2.5769    0.2650 Q=    0.4100 A=    0.0000 R=    0.0000 C=    0.0000
 XYZ=    5.9188   -3.1997    1.7695 Q=    0.4100 A=    0.0000 R=    0.0000 C=    0.0000
 XYZ=    5.9122    2.5507    2.1228 Q=   -0.8200 A=    0.0000 R=    0.0000 C=    0.0000
 XYZ=    5.2358    3.1796    2.5064 Q=    0.4100 A=    0.0000 R=    0.0000 C=    0.0000
 XYZ=    5.5449    2.1327    1.2919 Q=    0.4100 A=    0.0000 R=    0.0000 C=    0.0000
 XYZ=    2.2602    0.0729    6.6172 Q=   -0.8200 A=    0.0000 R=    0.0000 C=    0.0000
 XYZ=    2.8180   -0.6199    7.0741 Q=    0.4100 A=    0.0000 R=    0.0000 C=    0.0000
 XYZ=    2.8559    0.7668    6.2126 Q=    0.4100 A=    0.0000 R=    0.0000 C=    0.0000
 XYZ=    3.3550    4.5323   -1.8985 Q=   -0.8200 A=    0.0000 R=    0.0000 C=    0.0000
 XYZ=    3.7180    5.3503   -1.4524 Q=    0.4100 A=    0.0000 R=    0.0000 C=    0.0000
 XYZ=    3.9836    4.2387   -2.6187 Q=    0.4100 A=    0.0000 R=    0.0000 C=    0.0000
 XYZ=    4.6935    4.2274    2.9710 Q=   -0.8200 A=    0.0000 R=    0.0000 C=    0.0000
 XYZ=    4.1806    4.0753    3.8159 Q=    0.4100 A=    0.0000 R=    0.0000 C=    0.0000
 XYZ=    4.0551    4.3750    2.2156 Q=    0.4100 A=    0.0000 R=    0.0000 C=    0.0000
 XYZ=   -0.2413   -7.4557    0.3740 Q=   -0.8200 A=    0.0000 R=    0.0000 C=    0.0000
 XYZ=    0.6503   -7.1389    0.0503 Q=    0.4100 A=    0.0000 R=    0.0000 C=    0.0000
 XYZ=   -0.5588   -8.2063   -0.2056 Q=    0.4100 A=    0.0000 R=    0.0000 C=    0.0000
 XYZ=   -5.0007   -0.8834    4.4727 Q=   -0.8200 A=    0.0000 R=    0.0000 C=    0.0000
 XYZ=   -4.0011   -0.9094    4.4593 Q=    0.4100 A=    0.0000 R=    0.0000 C=    0.0000
 XYZ=   -5.3555   -1.2667    3.6199 Q=    0.4100 A=    0.0000 R=    0.0000 C=    0.0000
 XYZ=    1.7492    7.3513   -0.3147 Q=   -0.8200 A=    0.0000 R=    0.0000 C=    0.0000
 XYZ=    1.1356    7.2681    0.4706 Q=    0.4100 A=    0.0000 R=    0.0000 C=    0.0000
 XYZ=    1.6017    6.5816   -0.9359 Q=    0.4100 A=    0.0000 R=    0.0000 C=    0.0000
 XYZ=   -0.1785   -5.6995    3.3375 Q=   -0.8200 A=    0.0000 R=    0.0000 C=    0.0000
 XYZ=   -0.4103   -6.6097    2.9942 Q=    0.4100 A=    0.0000 R=    0.0000 C=    0.0000
 XYZ=    0.5770   -5.7715    3.9888 Q=    0.4100 A=    0.0000 R=    0.0000 C=    0.0000
 XYZ=    4.3069   -4.0575    4.0411 Q=   -0.8200 A=    0.0000 R=    0.0000 C=    0.0000
 XYZ=    4.3440   -3.1744    3.5733 Q=    0.4100 A=    0.0000 R=    0.0000 C=    0.0000
 XYZ=    3.7831   -3.9643    4.8879 Q=    0.4100 A=    0.0000 R=    0.0000 C=    0.0000
 XYZ=   -1.6193    4.8693   -6.4823 Q=   -0.8200 A=    0.0000 R=    0.0000 C=    0.0000
 XYZ=   -1.9208    4.3683   -5.6710 Q=    0.4100 A=    0.0000 R=    0.0000 C=    0.0000
 XYZ=   -2.4154    5.1261   -7.0303 Q=    0.4100 A=    0.0000 R=    0.0000 C=    0.0000
 XYZ=    6.2898   -2.3778   -2.6948 Q=   -0.8200 A=    0.0000 R=    0.0000 C=    0.0000
 XYZ=    7.1296   -1.9357   -2.3797 Q=    0.4100 A=    0.0000 R=    0.0000 C=    0.0000
 XYZ=    5.9764   -3.0289   -2.0035 Q=    0.4100 A=    0.0000 R=    0.0000 C=    0.0000
 XYZ=   -6.5700    1.8756   -1.3035 Q=   -0.8200 A=    0.0000 R=    0.0000 C=    0.0000
 XYZ=   -6.8763    1.0325   -0.8612 Q=    0.4100 A=    0.0000 R=    0.0000 C=    0.0000
 XYZ=   -7.1202    2.0414   -2.1219 Q=    0.4100 A=    0.0000 R=    0.0000 C=    0.0000
 XYZ=    5.3411    1.4574   -2.3174 Q=   -0.8200 A=    0.0000 R=    0.0000 C=    0.0000
 XYZ=    5.2848    2.3654   -2.7327 Q=    0.4100 A=    0.0000 R=    0.0000 C=    0.0000
 XYZ=    5.1998    0.7601   -3.0201 Q=    0.4100 A=    0.0000 R=    0.0000 C=    0.0000
 XYZ=    6.7785   -0.2278    0.6431 Q=   -0.8200 A=    0.0000 R=    0.0000 C=    0.0000
 XYZ=    6.1508    0.5503    0.6190 Q=    0.4100 A=    0.0000 R=    0.0000 C=    0.0000
 XYZ=    6.3079   -1.0240    1.0236 Q=    0.4100 A=    0.0000 R=    0.0000 C=    0.0000
 XYZ=   -7.1098   -0.4558   -0.7856 Q=   -0.8200 A=    0.0000 R=    0.0000 C=    0.0000
 XYZ=   -6.5947   -0.8998   -1.5188 Q=    0.4100 A=    0.0000 R=    0.0000 C=    0.0000
 XYZ=   -6.9135   -0.9113    0.0827 Q=    0.4100 A=    0.0000 R=    0.0000 C=    0.0000
 XYZ=    5.8150   -4.6082    2.1077 Q=   -0.8200 A=    0.0000 R=    0.0000 C=    0.0000
 XYZ=    5.3078   -4.4528    2.9554 Q=    0.4100 A=    0.0000 R=    0.0000 C=    0.0000
 XYZ=    5.1826   -4.8980    1.3893 Q=    0.4100 A=    0.0000 R=    0.0000 C=    0.0000
 XYZ=   -7.0275    2.6586    1.0381 Q=   -0.8200 A=    0.0000 R=    0.0000 C=    0.0000
 XYZ=   -6.2982    3.2843    1.3150 Q=    0.4100 A=    0.0000 R=    0.0000 C=    0.0000
 XYZ=   -6.9349    2.4489    0.0647 Q=    0.4100 A=    0.0000 R=    0.0000 C=    0.0000
 XYZ=    1.2032    6.6333    4.0997 Q=   -0.8200 A=    0.0000 R=    0.0000 C=    0.0000
 XYZ=    0.5294    6.7620    3.3721 Q=    0.4100 A=    0.0000 R=    0.0000 C=    0.0000
 XYZ=    2.0071    6.1668    3.7307 Q=    0.4100 A=    0.0000 R=    0.0000 C=    0.0000
 XYZ=    4.7878   -5.5138   -3.7510 Q=   -0.8200 A=    0.0000 R=    0.0000 C=    0.0000
 XYZ=    4.7621   -4.5217   -3.8739 Q=    0.4100 A=    0.0000 R=    0.0000 C=    0.0000
 XYZ=    4.5249   -5.9624   -4.6052 Q=    0.4100 A=    0.0000 R=    0.0000 C=    0.0000
 XYZ=    4.0055    1.5159    5.9072 Q=   -0.8200 A=    0.0000 R=    0.0000 C=    0.0000
 XYZ=    4.6027    1.4626    6.7075 Q=    0.4100 A=    0.0000 R=    0.0000 C=    0.0000
 XYZ=    4.1136    2.4086    5.4696 Q=    0.4100 A=    0.0000 R=    0.0000 C=    0.0000
 XYZ=   -6.0859    2.7834   -5.0745 Q=   -0.8200 A=    0.0000 R=    0.0000 C=    0.0000
 XYZ=   -6.3912    3.1159   -5.9669 Q=    0.4100 A=    0.0000 R=    0.0000 C=    0.0000
 XYZ=   -5.5847    1.9261   -5.1920 Q=    0.4100 A=    0.0000 R=    0.0000 C=    0.0000
 XYZ=    5.4530   -0.3358   -4.0143 Q=   -0.8200 A=    0.0000 R=    0.0000 C=    0.0000
 XYZ=    6.1966    0.0337   -4.5716 Q=    0.4100 A=    0.0000 R=    0.0000 C=    0.0000
 XYZ=    5.7834   -1.1274   -3.5003 Q=    0.4100 A=    0.0000 R=    0.0000 C=    0.0000
 XYZ=    0.1579    6.6741   -3.4601 Q=   -0.8200 A=    0.0000 R=    0.0000 C=    0.0000
 XYZ=   -0.7727    6.5237   -3.1265 Q=    0.4100 A=    0.0000 R=    0.0000 C=    0.0000
 XYZ=    0.2327    6.3422   -4.4004 Q=    0.4100 A=    0.0000 R=    0.0000 C=    0.0000
 XYZ=   -1.8865    8.3360   -0.9946 Q=   -0.8200 A=    0.0000 R=    0.0000 C=    0.0000
 XYZ=   -0.9693    8.6522   -1.2374 Q=    0.4100 A=    0.0000 R=    0.0000 C=    0.0000
 XYZ=   -1.8205    7.6380   -0.2815 Q=    0.4100 A=    0.0000 R=    0.0000 C=    0.0000
 XYZ=   -3.4269    6.2748   -4.3231 Q=   -0.8200 A=    0.0000 R=    0.0000 C=    0.0000
 XYZ=   -2.7626    6.4699   -3.6015 Q=    0.4100 A=    0.0000 R=    0.0000 C=    0.0000
 XYZ=   -3.7631    5.3384   -4.2223 Q=    0.4100 A=    0.0000 R=    0.0000 C=    0.0000
 XYZ=    4.1092   -6.6169   -1.7027 Q=   -0.8200 A=    0.0000 R=    0.0000 C=    0.0000
 XYZ=    4.8288   -7.3053   -1.6114 Q=    0.4100 A=    0.0000 R=    0.0000 C=    0.0000
 XYZ=    4.2517   -6.0954   -2.5439 Q=    0.4100 A=    0.0000 R=    0.0000 C=    0.0000
 XYZ=   -5.1829   -5.1196   -4.9495 Q=   -0.8200 A=    0.0000 R=    0.0000 C=    0.0000
 XYZ=   -4.1854   -5.0780   -5.0084 Q=    0.4100 A=    0.0000 R=    0.0000 C=    0.0000
 XYZ=   -5.5832   -4.5699   -5.6827 Q=    0.4100 A=    0.0000 R=    0.0000 C=    0.0000
 XYZ=   -2.6689   -3.3755    5.3014 Q=   -0.8200 A=    0.0000 R=    0.0000 C=    0.0000
 XYZ=   -3.2111   -3.4939    6.1333 Q=    0.4100 A=    0.0000 R=    0.0000 C=    0.0000
 XYZ=   -2.3437   -4.2669    4.9858 Q=    0.4100 A=    0.0000 R=    0.0000 C=    0.0000
 XYZ=   -3.5654   -5.8178    1.3171 Q=   -0.8200 A=    0.0000 R=    0.0000 C=    0.0000
 XYZ=   -3.0050   -6.5606    1.6835 Q=    0.4100 A=    0.0000 R=    0.0000 C=    0.0000
 XYZ=   -4.0193   -6.1243    0.4803 Q=    0.4100 A=    0.0000 R=    0.0000 C=    0.0000
 XYZ=   -1.9683   -5.4529    4.6846 Q=   -0.8200 A=    0.0000 R=    0.0000 C=    0.0000
 XYZ=   -1.1554   -5.5820    4.1166 Q=    0.4100 A=    0.0000 R=    0.0000 C=    0.0000
 XYZ=   -2.0137   -6.1785    5.3713 Q=    0.4100 A=    0.0000 R=    0.0000 C=    0.0000
 XYZ=    4.0087    3.8709    5.1784 Q=   -0.8200 A=    0.0000 R=    0.0000 C=    0.0000
 XYZ=    4.7307    4.4242    5.5940 Q=    0.4100 A=    0.0000 R=    0.0000 C=    0.0000
 XYZ=    3.1158    4.2414    5.4346 Q=    0.4100 A=    0.0000 R=    0.0000 C=    0.0000
 XYZ=   -1.6789   -7.5679    2.2386 Q=   -0.8200 A=    0.0000 R=    0.0000 C=    0.0000
 XYZ=   -1.0077   -7.3763    1.5225 Q=    0.4100 A=    0.0000 R=    0.0000 C=    0.0000
 XYZ=   -2.2962   -8.2924    1.9316 Q=    0.4100 A=    0.0000 R=    0.0000 C=    0.0000
 XYZ=   -5.9149    5.1059   -0.4271 Q=   -0.8200 A=    0.0000 R=    0.0000 C=    0.0000
 XYZ=   -5.9541    5.9660   -0.9358 Q=    0.4100 A=    0.0000 R=    0.0000 C=    0.0000
 XYZ=   -6.7294    4.5620   -0.6290 Q=    0.4100 A=    0.0000 R=    0.0000 C=    0.0000
 XYZ=    4.3114   -1.6595   -7.7106 Q=   -0.8200 A=    0.0000 R=    0.0000 C=    0.0000
 XYZ=    4.3098   -2.6134   -7.4101 Q=    0.4100 A=    0.0000 R=    0.0000 C=    0.0000
 XYZ=    3.6837   -1.1295   -7.1403 Q=    0.4100 A=    0.0000 R=    0.0000 C=    0.0000
 XYZ=   -6.7667   -2.1387    0.9329 Q=   -0.8200 A=    0.0000 R=    0.0000 C=    0.0000
 XYZ=   -5.9403   -1.9691    1.4698 Q=    0.4100 A=    0.0000 R=    0.0000 C=    0.0000
 XYZ=   -6.6586   -2.9865    0.4137 Q=    0.4100 A=    0.0000 R=    0.0000 C=    0.0000
 XYZ=    1.1753    1.8047    8.1443 Q=   -0.8200 A=    0.0000 R=    0.0000 C=    0.0000
 XYZ=    1.5748    1.1004    7.5574 Q=    0.4100 A=    0.0000 R=    0.0000 C=    0.0000
 XYZ=    0.2964    1.4845    8.4981 Q=    0.4100 A=    0.0000 R=    0.0000 C=    0.0000
 XYZ=    3.2083   -6.1414    3.3749 Q=   -0.8200 A=    0.0000 R=    0.0000 C=    0.0000
 XYZ=    2.5400   -6.5195    4.0156 Q=    0.4100 A=    0.0000 R=    0.0000 C=    0.0000
 XYZ=    3.7562   -5.4443    3.8375 Q=    0.4100 A=    0.0000 R=    0.0000 C=    0.0000
 XYZ=    0.8793   -4.3081    6.4471 Q=   -0.8200 A=    0.0000 R=    0.0000 C=    0.0000
 XYZ=    1.7308   -3.8311    6.2295 Q=    0.4100 A=    0.0000 R=    0.0000 C=    0.0000
 XYZ=    0.1132   -3.6686    6.3825 Q=    0.4100 A=    0.0000 R=    0.0000 C=    0.0000
 XYZ=    7.0131    1.1516    3.5206 Q=   -0.8200 A=    0.0000 R=    0.0000 C=    0.0000
 XYZ=    6.5971    1.7166    2.8080 Q=    0.4100 A=    0.0000 R=    0.0000 C=    0.0000
 XYZ=    6.3268    0.5275    3.8941 Q=    0.4100 A=    0.0000 R=    0.0000 C=    0.0000
 XYZ=    4.7749   -3.8347   -6.7312 Q=   -0.8200 A=    0.0000 R=    0.0000 C=    0.0000
 XYZ=    4.8404   -3.5449   -5.7763 Q=    0.4100 A=    0.0000 R=    0.0000 C=    0.0000
 XYZ=    5.6783   -4.1124   -7.0579 Q=    0.4100 A=    0.0000 R=    0.0000 C=    0.0000
 XYZ=    3.9593    6.4288   -0.5043 Q=   -0.8200 A=    0.0000 R=    0.0000 C=    0.0000
 XYZ=    3.1120    6.9232   -0.3104 Q=    0.4100 A=    0.0000 R=    0.0000 C=    0.0000
 XYZ=    4.7296    6.9113   -0.0874 Q=    0.4100 A=    0.0000 R=    0.0000 C=    0.0000
 XYZ=    1.9028    4.8976    5.8562 Q=   -0.8200 A=    0.0000 R=    0.0000 C=    0.0000
 XYZ=    1.3803    5.6113    5.3896 Q=    0.4100 A=    0.0000 R=    0.0000 C=    0.0000
 XYZ=    1.3957    4.5844    6.6593 Q=    0.4100 A=    0.0000 R=    0.0000 C=    0.0000
 XYZ=    7.3621    0.7506   -1.4384 Q=   -0.8200 A=    0.0000 R=    0.0000 C=    0.0000
 XYZ=    6.5423    1.1230   -1.8734 Q=    0.4100 A=    0.0000 R=    0.0000 C=    0.0000
 XYZ=    7.1067    0.2791   -0.5943 Q=    0.4100 A=    0.0000 R=    0.0000 C=    0.0000
 XYZ=    0.2574    6.1403   -5.8013 Q=   -0.8200 A=    0.0000 R=    0.0000 C=    0.0000
 XYZ=   -0.5647    5.5986   -5.9768 Q=    0.4100 A=    0.0000 R=    0.0000 C=    0.0000
 XYZ=    0.8545    6.1090   -6.6029 Q=    0.4100 A=    0.0000 R=    0.0000 C=    0.0000
 XYZ=   -5.8549    4.6980    3.6456 Q=   -0.8200 A=    0.0000 R=    0.0000 C=    0.0000
 XYZ=   -6.5208    5.3625    3.3065 Q=    0.4100 A=    0.0000 R=    0.0000 C=    0.0000
 XYZ=   -6.2941    4.0972    4.3136 Q=    0.4100 A=    0.0000 R=    0.0000 C=    0.0000
 XYZ=   -6.8127    0.6931    4.6848 Q=   -0.8200 A=    0.0000 R=    0.0000 C=    0.0000
 XYZ=   -5.9274    0.2381    4.5892 Q=    0.4100 A=    0.0000 R=    0.0000 C=    0.0000
 XYZ=   -7.4712    0.0592    5.0905 Q=    0.4100 A=    0.0000 R=    0.0000 C=    0.0000
 XYZ=   -1.8422   -2.1817    8.2780 Q=   -0.8200 A=    0.0000 R=    0.0000 C=    0.0000
 XYZ=   -1.2103   -2.1143    7.5058 Q=    0.4100 A=    0.0000 R=    0.0000 C=    0.0000
 XYZ=   -1.3419   -2.4723    9.0936 Q=    0.4100 A=    0.0000 R=    0.0000 C=    0.0000
 XYZ=   -1.8124   -2.0354   -9.5758 Q=   -0.8200 A=    0.0000 R=    0.0000 C=    0.0000
 XYZ=   -1.9923   -2.8405  -10.1411 Q=    0.4100 A=    0.0000 R=    0.0000 C=    0.0000
 XYZ=   -1.8557   -2.2900   -8.6097 Q=    0.4100 A=    0.0000 R=    0.0000 C=    0.0000
 XYZ=   -7.6830    2.6869   -3.3162 Q=   -0.8200 A=    0.0000 R=    0.0000 C=    0.0000
 XYZ=   -7.0363    2.7033   -4.0789 Q=    0.4100 A=    0.0000 R=    0.0000 C=    0.0000
 XYZ=   -8.5536    2.3044   -3.6256 Q=    0.4100 A=    0.0000 R=    0.0000 C=    0.0000
 XYZ=   -7.9319    1.1775    2.5931 Q=   -0.8200 A=    0.0000 R=    0.0000 C=    0.0000
 XYZ=   -7.4770    1.7633    1.9223 Q=    0.4100 A=    0.0000 R=    0.0000 C=    0.0000
 XYZ=   -7.3601    1.0998    3.4098 Q=    0.4100 A=    0.0000 R=    0.0000 C=    0.0000
 XYZ=   -5.4525    1.5349   -7.9804 Q=   -0.8200 A=    0.0000 R=    0.0000 C=    0.0000
 XYZ=   -6.1895    1.0373   -8.4378 Q=    0.4100 A=    0.0000 R=    0.0000 C=    0.0000
 XYZ=   -5.2156    1.0697   -7.1275 Q=    0.4100 A=    0.0000 R=    0.0000 C=    0.0000
 XYZ=    0.3543    9.0906   -1.1483 Q=   -0.8200 A=    0.0000 R=    0.0000 C=    0.0000
 XYZ=    0.5840    9.0811   -2.1215 Q=    0.4100 A=    0.0000 R=    0.0000 C=    0.0000
 XYZ=    0.9547    8.4588   -0.6580 Q=    0.4100 A=    0.0000 R=    0.0000 C=    0.0000
 XYZ=    3.7373   -1.5380    7.3022 Q=   -0.8200 A=    0.0000 R=    0.0000 C=    0.0000
 XYZ=    3.7794   -1.5798    8.3004 Q=    0.4100 A=    0.0000 R=    0.0000 C=    0.0000
 XYZ=    4.6529   -1.6740    6.9240 Q=    0.4100 A=    0.0000 R=    0.0000 C=    0.0000
 XYZ=    1.3762   -6.1025    5.0253 Q=   -0.8200 A=    0.0000 R=    0.0000 C=    0.0000
 XYZ=    0.8345   -6.8816    5.3408 Q=    0.4100 A=    0.0000 R=    0.0000 C=    0.0000
 XYZ=    1.2536   -5.3348    5.6544 Q=    0.4100 A=    0.0000 R=    0.0000 C=    0.0000
 XYZ=    0.6791    4.2021    7.7698 Q=   -0.8200 A=    0.0000 R=    0.0000 C=    0.0000
 XYZ=    1.0552    4.6634    8.5734 Q=    0.4100 A=    0.0000 R=    0.0000 C=    0.0000
 XYZ=    0.9685    3.2448    7.7692 Q=    0.4100 A=    0.0000 R=    0.0000 C=    0.0000
 XYZ=   -4.2126   -5.7060    3.7135 Q=   -0.8200 A=    0.0000 R=    0.0000 C=    0.0000
 XYZ=   -3.2982   -5.8216    4.1016 Q=    0.4100 A=    0.0000 R=    0.0000 C=    0.0000
 XYZ=   -4.1599   -5.7546    2.7161 Q=    0.4100 A=    0.0000 R=    0.0000 C=    0.0000
 XYZ=   -3.4104    2.6967   -7.9374 Q=   -0.8200 A=    0.0000 R=    0.0000 C=    0.0000
 XYZ=   -4.3357    2.3186   -7.9076 Q=    0.4100 A=    0.0000 R=    0.0000 C=    0.0000
 XYZ=   -3.4590    3.6954   -7.9567 Q=    0.4100 A=    0.0000 R=    0.0000 C=    0.0000
 XYZ=   -5.2415   -6.2962   -0.4125 Q=   -0.8200 A=    0.0000 R=    0.0000 C=    0.0000
 XYZ=   -5.4821   -6.2594   -1.3824 Q=    0.4100 A=    0.0000 R=    0.0000 C=    0.0000
 XYZ=   -5.2703   -7.2449   -0.0977 Q=    0.4100 A=    0.0000 R=    0.0000 C=    0.0000
 XYZ=    0.1353    4.9209   -8.3862 Q=   -0.8200 A=    0.0000 R=    0.0000 C=    0.0000
 XYZ=   -0.3737    4.5767   -7.5972 Q=    0.4100 A=    0.0000 R=    0.0000 C=    0.0000
 XYZ=    1.0641    4.5507   -8.3710 Q=    0.4100 A=    0.0000 R=    0.0000 C=    0.0000
 XYZ=    7.6924    4.0046    2.4725 Q=   -0.8200 A=    0.0000 R=    0.0000 C=    0.0000
 XYZ=    8.2595    3.6254    3.2037 Q=    0.4100 A=    0.0000 R=    0.0000 C=    0.0000
 XYZ=    6.8874    3.4260    2.3410 Q=    0.4100 A=    0.0000 R=    0.0000 C=    0.0000
 XYZ=   -5.1209    6.1256    5.3923 Q=   -0.8200 A=    0.0000 R=    0.0000 C=    0.0000
 XYZ=   -5.9721    6.5169    5.7420 Q=    0.4100 A=    0.0000 R=    0.0000 C=    0.0000
 XYZ=   -5.3308    5.4424    4.6928 Q=    0.4100 A=    0.0000 R=    0.0000 C=    0.0000
 XYZ=   -1.7337   -5.3814   -8.4129 Q=   -0.8200 A=    0.0000 R=    0.0000 C=    0.0000
 XYZ=   -0.7507   -5.2329   -8.3048 Q=    0.4100 A=    0.0000 R=    0.0000 C=    0.0000
 XYZ=   -2.0577   -6.0018   -7.6986 Q=    0.4100 A=    0.0000 R=    0.0000 C=    0.0000
 XYZ=    5.1572    3.9205   -3.4532 Q=   -0.8200 A=    0.0000 R=    0.0000 C=    0.0000
 XYZ=    6.0278    3.9771   -2.9644 Q=    0.4100 A=    0.0000 R=    0.0000 C=    0.0000
 XYZ=    5.2599    4.3200   -4.3642 Q=    0.4100 A=    0.0000 R=    0.0000 C=    0.0000
 XYZ=   -2.4694    8.4825    2.6808 Q=   -0.8200 A=    0.0000 R=    0.0000 C=    0.0000
 XYZ=   -2.9249    8.1883    3.5211 Q=    0.4100 A=    0.0000 R=    0.0000 C=    0.0000
 XYZ=   -3.0050    9.2074    2.2475 Q=    0.4100 A=    0.0000 R=    0.0000 C=    0.0000
 XYZ=   -6.2868   -6.2110   -2.7948 Q=   -0.8200 A=    0.0000 R=    0.0000 C=    0.0000
 XYZ=   -7.2537   -6.1335   -2.5516 Q=    0.4100 A=    0.0000 R=    0.0000 C=    0.0000
 XYZ=   -6.0744   -5.5642   -3.5273 Q=    0.4100 A=    0.0000 R=    0.0000 C=    0.0000
 XYZ=    6.2865    6.0484    2.6973 Q=   -0.8200 A=    0.0000 R=    0.0000 C=    0.0000
 XYZ=    5.5085    5.4272    2.7917 Q=    0.4100 A=    0.0000 R=    0.0000 C=    0.0000
 XYZ=    7.1333    5.5181    2.6563 Q=    0.4100 A=    0.0000 R=    0.0000 C=    0.0000
 XYZ=    5.4176   -8.0259    1.1637 Q=   -0.8200 A=    0.0000 R=    0.0000 C=    0.0000
 XYZ=    5.4855   -8.1165    0.1700 Q=    0.4100 A=    0.0000 R=    0.0000 C=    0.0000
 XYZ=    4.4993   -7.7142    1.4079 Q=    0.4100 A=    0.0000 R=    0.0000 C=    0.0000
 XYZ=   -3.9365    5.2554    7.0859 Q=   -0.8200 A=    0.0000 R=    0.0000 C=    0.0000
 XYZ=   -4.2525    5.6175    6.2089 Q=    0.4100 A=    0.0000 R=    0.0000 C=    0.0000
 XYZ=   -3.2615    4.5352    6.9253 Q=    0.4100 A=    0.0000 R=    0.0000 C=    0.0000
 XYZ=    6.6985   -6.4620   -2.8455 Q=   -0.8200 A=    0.0000 R=    0.0000 C=    0.0000
 XYZ=    5.9231   -6.0241   -3.3005 Q=    0.4100 A=    0.0000 R=    0.0000 C=    0.0000
 XYZ=    7.5054   -6.4054   -3.4337 Q=    0.4100 A=    0.0000 R=    0.0000 C=    0.0000
 XYZ=   -1.6564    3.5718    7.9712 Q=   -0.8200 A=    0.0000 R=    0.0000 C=    0.0000
 XYZ=   -0.8119    4.0119    7.6657 Q=    0.4100 A=    0.0000 R=    0.0000 C=    0.0000
 XYZ=   -1.4467    2.6637    8.3337 Q=    0.4100 A=    0.0000 R=    0.0000 C=    0.0000
 XYZ=   -5.6315   -4.0816    2.9820 Q=   -0.8200 A=    0.0000 R=    0.0000 C=    0.0000
 XYZ=   -6.3914   -3.8812    3.6004 Q=    0.4100 A=    0.0000 R=    0.0000 C=    0.0000
 XYZ=   -4.9351   -4.6084    3.4695 Q=    0.4100 A=    0.0000 R=    0.0000 C=    0.0000
 XYZ=   -5.9447   -2.1443    6.2064 Q=   -0.8200 A=    0.0000 R=    0.0000 C=    0.0000
 XYZ=   -5.4647   -1.6376    5.4902 Q=    0.4100 A=    0.0000 R=    0.0000 C=    0.0000
 XYZ=   -5.2777   -2.5589    6.8254 Q=    0.4100 A=    0.0000 R=    0.0000 C=    0.0000
 XYZ=    8.6706   -0.4693    1.8176 Q=   -0.8200 A=    0.0000 R=    0.0000 C=    0.0000
 XYZ=    8.4338   -0.0727    2.7046 Q=    0.4100 A=    0.0000 R=    0.0000 C=    0.0000
 XYZ=    7.9090   -0.3426    1.1820 Q=    0.4100 A=    0.0000 R=    0.0000 C=    0.0000
 XYZ=    3.6856   -5.6601   -8.1435 Q=   -0.8200 A=    0.0000 R=    0.0000 C=    0.0000
 XYZ=    4.4168   -5.7486   -8.8199 Q=    0.4100 A=    0.0000 R=    0.0000 C=    0.0000
 XYZ=    3.8576   -4.8594   -7.5696 Q=    0.4100 A=    0.0000 R=    0.0000 C=    0.0000
 XYZ=    8.1959   -1.4537   -1.9427 Q=   -0.8200 A=    0.0000 R=    0.0000 C=    0.0000
 XYZ=    7.9999   -0.4760   -1.8665 Q=    0.4100 A=    0.0000 R=    0.0000 C=    0.0000
 XYZ=    8.5282   -1.7964   -1.0639 Q=    0.4100 A=    0.0000 R=    0.0000 C=    0.0000
 XYZ=   -6.5656   -4.6511    0.8653 Q=   -0.8200 A=    0.0000 R=    0.0000 C=    0.0000
 XYZ=   -6.0421   -5.4492    0.5671 Q=    0.4100 A=    0.0000 R=    0.0000 C=    0.0000
 XYZ=   -6.2358   -4.3516    1.7606 Q=    0.4100 A=    0.0000 R=    0.0000 C=    0.0000
 XYZ=    0.2407    8.2899    5.4865 Q=   -0.8200 A=    0.0000 R=    0.0000 C=    0.0000
 XYZ=    0.8740    7.6253    5.0899 Q=    0.4100 A=    0.0000 R=    0.0000 C=    0.0000
 XYZ=   -0.5612    7.8127    5.8460 Q=    0.4100 A=    0.0000 R=    0.0000 C=    0.0000
 XYZ=    7.9976   -5.2448    1.5702 Q=   -0.8200 A=    0.0000 R=    0.0000 C=    0.0000
 XYZ=    7.1138   -4.9793    1.9555 Q=    0.4100 A=    0.0000 R=    0.0000 C=    0.0000
 XYZ=    7.8911   -5.4390    0.5950 Q=    0.4100 A=    0.0000 R=    0.0000 C=    0.0000
 XYZ=    3.2122    1.4602   -8.2358 Q=   -0.8200 A=    0.0000 R=    0.0000 C=    0.0000
 XYZ=    4.2115    1.4940   -8.2526 Q=    0.4100 A=    0.0000 R=    0.0000 C=    0.0000
 XYZ=    2.8666    1.3563   -9.1685 Q=    0.4100 A=    0.0000 R=    0.0000 C=    0.0000
 XYZ=    0.9805    8.9634   -3.4695 Q=   -0.8200 A=    0.0000 R=    0.0000 C=    0.0000
 XYZ=    0.8751    9.4637   -4.3290 Q=    0.4100 A=    0.0000 R=    0.0000 C=    0.0000
 XYZ=    0.6663    8.0219   -3.5912 Q=    0.4100 A=    0.0000 R=    0.0000 C=    0.0000
 XYZ=   -9.5063   -0.2809   -0.8064 Q=   -0.8200 A=    0.0000 R=    0.0000 C=    0.0000
 XYZ=   -9.5837    0.6995   -0.9878 Q=    0.4100 A=    0.0000 R=    0.0000 C=    0.0000
 XYZ=   -8.5553   -0.5674   -0.9234 Q=    0.4100 A=    0.0000 R=    0.0000 C=    0.0000
 XYZ=   -4.8713   -7.5396   -5.3711 Q=   -0.8200 A=    0.0000 R=    0.0000 C=    0.0000
 XYZ=   -5.0714   -6.5982   -5.0994 Q=    0.4100 A=    0.0000 R=    0.0000 C=    0.0000
 XYZ=   -5.2394   -8.1694   -4.6871 Q=    0.4100 A=    0.0000 R=    0.0000 C=    0.0000
 XYZ=    6.0014   -1.4850    6.4074 Q=   -0.8200 A=    0.0000 R=    0.0000 C=    0.0000
 XYZ=    6.2504   -1.0093    7.2511 Q=    0.4100 A=    0.0000 R=    0.0000 C=    0.0000
 XYZ=    6.6690   -2.2060    6.2219 Q=    0.4100 A=    0.0000 R=    0.0000 C=    0.0000
 XYZ=   -4.0590    8.8384   -1.5276 Q=   -0.8200 A=    0.0000 R=    0.0000 C=    0.0000
 XYZ=   -4.4954    9.5845   -1.0246 Q=    0.4100 A=    0.0000 R=    0.0000 C=    0.0000
 XYZ=   -3.0795    8.8289   -1.3263 Q=    0.4100 A=    0.0000 R=    0.0000 C=    0.0000
 XYZ=   -3.4062    7.8071    4.7581 Q=   -0.8200 A=    0.0000 R=    0.0000 C=    0.0000
 XYZ=   -4.0857    7.1004    4.9554 Q=    0.4100 A=    0.0000 R=    0.0000 C=    0.0000
 XYZ=   -3.8386    8.7076    4.8052 Q=    0.4100 A=    0.0000 R=    0.0000 C=    0.0000
 XYZ=   -2.8630   -7.2031   -6.6259 Q=   -0.8200 A=    0.0000 R=    0.0000 C=    0.0000
 XYZ=   -3.0425   -7.5016   -7.5633 Q=    0.4100 A=    0.0000 R=    0.0000 C=    0.0000
 XYZ=   -3.6435   -7.4376   -6.0464 Q=    0.4100 A=    0.0000 R=    0.0000 C=    0.0000
 XYZ=   -0.1793    9.0701    3.1855 Q=   -0.8200 A=    0.0000 R=    0.0000 C=    0.0000
 XYZ=   -1.1764    9.0480    3.1126 Q=    0.4100 A=    0.0000 R=    0.0000 C=    0.0000
 XYZ=    0.1030    8.6178    4.0316 Q=    0.4100 A=    0.0000 R=    0.0000 C=    0.0000
 XYZ=   -8.1574    4.7801   -2.2480 Q=   -0.8200 A=    0.0000 R=    0.0000 C=    0.0000
 XYZ=   -7.6627    5.5792   -2.5898 Q=    0.4100 A=    0.0000 R=    0.0000 C=    0.0000
 XYZ=   -7.8961    3.9741   -2.7791 Q=    0.4100 A=    0.0000 R=    0.0000 C=    0.0000
 XYZ=   -5.9051    7.4913   -1.1051 Q=   -0.8200 A=    0.0000 R=    0.0000 C=    0.0000
 XYZ=   -5.0151    7.8993   -1.3085 Q=    0.4100 A=    0.0000 R=    0.0000 C=    0.0000
 XYZ=   -6.4825    8.1644   -0.6428 Q=    0.4100 A=    0.0000 R=    0.0000 C=    0.0000
 XYZ=   -8.3589   -1.2986    2.2516 Q=   -0.8200 A=    0.0000 R=    0.0000 C=    0.0000
 XYZ=   -7.6961   -1.6999    1.6194 Q=    0.4100 A=    0.0000 R=    0.0000 C=    0.0000
 XYZ=   -8.2059   -0.3123    2.3130 Q=    0.4100 A=    0.0000 R=    0.0000 C=    0.0000
 XYZ=   -2.6869   -0.1004    8.6583 Q=   -0.8200 A=    0.0000 R=    0.0000 C=    0.0000
 XYZ=   -2.3791   -1.0391    8.5033 Q=    0.4100 A=    0.0000 R=    0.0000 C=    0.0000
 XYZ=   -3.4470   -0.1019    9.3082 Q=    0.4100 A=    0.0000 R=    0.0000 C=    0.0000
 XYZ=   -8.7900    4.4385    1.6148 Q=   -0.8200 A=    0.0000 R=    0.0000 C=    0.0000
 XYZ=   -8.1985    3.6433    1.4809 Q=    0.4100 A=    0.0000 R=    0.0000 C=    0.0000
 XYZ=   -9.6485    4.1479    2.0373 Q=    0.4100 A=    0.0000 R=    0.0000 C=    0.0000
 XYZ=    2.2918    3.8533   -8.2360 Q=   -0.8200 A=    0.0000 R=    0.0000 C=    0.0000
 XYZ=    2.9449    4.4320   -7.7474 Q=    0.4100 A=    0.0000 R=    0.0000 C=    0.0000
 XYZ=    2.5602    2.8946   -8.1415 Q=    0.4100 A=    0.0000 R=    0.0000 C=    0.0000
 XYZ=   -1.1129    1.5244    8.9761 Q=   -0.8200 A=    0.0000 R=    0.0000 C=    0.0000
 XYZ=   -1.7387    0.7534    8.8579 Q=    0.4100 A=    0.0000 R=    0.0000 C=    0.0000
 XYZ=   -1.1370    1.8304    9.9279 Q=    0.4100 A=    0.0000 R=    0.0000 C=    0.0000
 XYZ=   -6.9254    3.1763    5.6029 Q=   -0.8200 A=    0.0000 R=    0.0000 C=    0.0000
 XYZ=   -6.9511    3.1790    6.6026 Q=    0.4100 A=    0.0000 R=    0.0000 C=    0.0000
 XYZ=   -6.9356    2.2327    5.2718 Q=    0.4100 A=    0.0000 R=    0.0000 C=    0.0000
 XYZ=    0.2026   -1.0491  -10.2870 Q=   -0.8200 A=    0.0000 R=    0.0000 C=    0.0000
 XYZ=    0.7811   -1.8013  -10.6025 Q=    0.4100 A=    0.0000 R=    0.0000 C=    0.0000
 XYZ=   -0.6612   -1.4154   -9.9411 Q=    0.4100 A=    0.0000 R=    0.0000 C=    0.0000
 XYZ=    3.4202    5.2224   -6.6898 Q=   -0.8200 A=    0.0000 R=    0.0000 C=    0.0000
 XYZ=    2.9681    5.8227   -6.0299 Q=    0.4100 A=    0.0000 R=    0.0000 C=    0.0000
 XYZ=    4.3696    5.0766   -6.4118 Q=    0.4100 A=    0.0000 R=    0.0000 C=    0.0000
 XYZ=   -3.9910   -3.3688    7.3750 Q=   -0.8200 A=    0.0000 R=    0.0000 C=    0.0000
 XYZ=   -3.2488   -2.7809    7.6968 Q=    0.4100 A=    0.0000 R=    0.0000 C=    0.0000
 XYZ=   -4.1853   -4.0674    8.0637 Q=    0.4100 A=    0.0000 R=    0.0000 C=    0.0000
 XYZ=    7.8662   -5.3903   -0.8642 Q=   -0.8200 A=    0.0000 R=    0.0000 C=    0.0000
 XYZ=    8.8438   -5.5898   -0.9303 Q=    0.4100 A=    0.0000 R=    0.0000 C=    0.0000
 XYZ=    7.4053   -5.7026   -1.6949 Q=    0.4100 A=    0.0000 R=    0.0000 C=    0.0000
 XYZ=   -4.4533    8.4063   -4.0527 Q=   -0.8200 A=    0.0000 R=    0.0000 C=    0.0000
 XYZ=   -4.2788    8.6818   -3.1073 Q=    0.4100 A=    0.0000 R=    0.0000 C=    0.0000
 XYZ=   -4.2324    7.4373   -4.1636 Q=    0.4100 A=    0.0000 R=    0.0000 C=    0.0000
 XYZ=    1.2659   -6.0634   -8.6274 Q=   -0.8200 A=    0.0000 R=    0.0000 C=    0.0000
 XYZ=    1.0147   -7.0217   -8.4905 Q=    0.4100 A=    0.0000 R=    0.0000 C=    0.0000
 XYZ=    2.2307   -5.9357   -8.3972 Q=    0.4100 A=    0.0000 R=    0.0000 C=    0.0000
 XYZ=   -0.8931   -9.4684    3.3692 Q=   -0.8200 A=    0.0000 R=    0.0000 C=    0.0000
 XYZ=   -0.4461   -9.9457    2.6126 Q=    0.4100 A=    0.0000 R=    0.0000 C=    0.0000
 XYZ=   -1.2456   -8.5897    3.0472 Q=    0.4100 A=    0.0000 R=    0.0000 C=    0.0000
 XYZ=    6.3573   -0.6120   -7.7787 Q=   -0.8200 A=    0.0000 R=    0.0000 C=    0.0000
 XYZ=    6.5687   -0.3603   -6.8343 Q=    0.4100 A=    0.0000 R=    0.0000 C=    0.0000
 XYZ=    5.5256   -1.1669   -7.7976 Q=    0.4100 A=    0.0000 R=    0.0000 C=    0.0000
 XYZ=   -3.0094    2.0552  -10.1884 Q=   -0.8200 A=    0.0000 R=    0.0000 C=    0.0000
 XYZ=   -3.0431    2.2765   -9.2138 Q=    0.4100 A=    0.0000 R=    0.0000 C=    0.0000
 XYZ=   -3.0225    1.0621  -10.3054 Q=    0.4100 A=    0.0000 R=    0.0000 C=    0.0000
 XYZ=    0.6790   -4.9227    8.6782 Q=   -0.8200 A=    0.0000 R=    0.0000 C=    0.0000
 XYZ=    0.9495   -4.6642    7.7508 Q=    0.4100 A=    0.0000 R=    0.0000 C=    0.0000
 XYZ=    1.4403   -5.3879    9.1300 Q=    0.4100 A=    0.0000 R=    0.0000 C=    0.0000
 XYZ=    2.4317    2.7991    9.8384 Q=   -0.8200 A=    0.0000 R=    0.0000 C=    0.0000
 XYZ=    3.4101    2.8834    9.6494 Q=    0.4100 A=    0.0000 R=    0.0000 C=    0.0000
 XYZ=    1.9770    2.3714    9.0572 Q=    0.4100 A=    0.0000 R=    0.0000 C=    0.0000
 XYZ=    8.4430    2.7849    4.8062 Q=   -0.8200 A=    0.0000 R=    0.0000 C=    0.0000
 XYZ=    7.8278    2.2369    4.2394 Q=    0.4100 A=    0.0000 R=    0.0000 C=    0.0000
 XYZ=    9.1394    2.1924    5.2112 Q=    0.4100 A=    0.0000 R=    0.0000 C=    0.0000
 XYZ=    7.1169   -0.0353   -5.7060 Q=   -0.8200 A=    0.0000 R=    0.0000 C=    0.0000
 XYZ=    7.5879    0.8388   -5.5866 Q=    0.4100 A=    0.0000 R=    0.0000 C=    0.0000
 XYZ=    7.7903   -0.7585   -5.8592 Q=    0.4100 A=    0.0000 R=    0.0000 C=    0.0000
 XYZ=    2.9516   -7.6395   -6.9966 Q=   -0.8200 A=    0.0000 R=    0.0000 C=    0.0000
 XYZ=    3.2707   -6.8196   -7.4719 Q=    0.4100 A=    0.0000 R=    0.0000 C=    0.0000
 XYZ=    3.7352   -8.2141   -6.7604 Q=    0.4100 A=    0.0000 R=    0.0000 C=    0.0000
 XYZ=   -6.5113    3.5438   -7.2033 Q=   -0.8200 A=    0.0000 R=    0.0000 C=    0.0000
 XYZ=   -6.3440    4.3437   -7.7796 Q=    0.4100 A=    0.0000 R=    0.0000 C=    0.0000
 XYZ=   -6.1394    2.7289   -7.6480 Q=    0.4100 A=    0.0000 R=    0.0000 C=    0.0000
 XYZ=    3.8736   -2.2555  -10.1379 Q=   -0.8200 A=    0.0000 R=    0.0000 C=    0.0000
 XYZ=    4.0434   -2.0498   -9.1741 Q=    0.4100 A=    0.0000 R=    0.0000 C=    0.0000
 XYZ=    4.5858   -2.8696  -10.4780 Q=    0.4100 A=    0.0000 R=    0.0000 C=    0.0000
 XYZ=   -6.2148   -4.1514   -6.8766 Q=   -0.8200 A=    0.0000 R=    0.0000 C=    0.0000
 XYZ=   -6.1197   -4.7252   -7.6901 Q=    0.4100 A=    0.0000 R=    0.0000 C=    0.0000
 XYZ=   -6.3741   -3.2039   -7.1538 Q=    0.4100 A=    0.0000 R=    0.0000 C=    0.0000
 XYZ=    6.0513   -8.0409   -1.1760 Q=   -0.8200 A=    0.0000 R=    0.0000 C=    0.0000
 XYZ=    6.8226   -8.5290   -0.7675 Q=    0.4100 A=    0.0000 R=    0.0000 C=    0.0000
 XYZ=    6.3894   -7.4038   -1.8687 Q=    0.4100 A=    0.0000 R=    0.0000 C=    0.0000
 XYZ=   -1.9036    7.5606    6.5476 Q=   -0.8200 A=    0.0000 R=    0.0000 C=    0.0000
 XYZ=   -2.6800    7.6669    5.9263 Q=    0.4100 A=    0.0000 R=    0.0000 C=    0.0000
 XYZ=   -2.2207    7.1763    7.4146 Q=    0.4100 A=    0.0000 R=    0.0000 C=    0.0000
 XYZ=   -1.4098   -9.0585   -6.6736 Q=   -0.8200 A=    0.0000 R=    0.0000 C=    0.0000
 XYZ=   -1.9817   -8.2393   -6.6288 Q=    0.4100 A=    0.0000 R=    0.0000 C=    0.0000
 XYZ=   -1.7712   -9.6796   -7.3691 Q=    0.4100 A=    0.0000 R=    0.0000 C=    0.0000
 XYZ=    5.4964    1.6302    7.7832 Q=   -0.8200 A=    0.0000 R=    0.0000 C=    0.0000
 XYZ=    6.3366    2.1061    7.5233 Q=    0.4100 A=    0.0000 R=    0.0000 C=    0.0000
 XYZ=    5.0893    2.0821    8.5770 Q=    0.4100 A=    0.0000 R=    0.0000 C=    0.0000
 XYZ=    8.7123    2.7543   -1.2227 Q=   -0.8200 A=    0.0000 R=    0.0000 C=    0.0000
 XYZ=    8.1593    1.9220   -1.1842 Q=    0.4100 A=    0.0000 R=    0.0000 C=    0.0000
 XYZ=    8.9538    3.0372   -0.2944 Q=    0.4100 A=    0.0000 R=    0.0000 C=    0.0000
 XYZ=   -5.9172   -8.4664   -3.3539 Q=   -0.8200 A=    0.0000 R=    0.0000 C=    0.0000
 XYZ=   -5.9459   -7.4856   -3.1614 Q=    0.4100 A=    0.0000 R=    0.0000 C=    0.0000
 XYZ=   -6.8500   -8.8175   -3.4353 Q=    0.4100 A=    0.0000 R=    0.0000 C=    0.0000
 XYZ=    9.2642   -1.8766    0.0279 Q=   -0.8200 A=    0.0000 R=    0.0000 C=    0.0000
 XYZ=    9.4242   -2.8167    0.3291 Q=    0.4100 A=    0.0000 R=    0.0000 C=    0.0000
 XYZ=    9.0202   -1.3112    0.8158 Q=    0.4100 A=    0.0000 R=    0.0000 C=    0.0000
 XYZ=   -3.7899    5.3313   -7.9967 Q=   -0.8200 A=    0.0000 R=    0.0000 C=    0.0000
 XYZ=   -3.7122    6.3208   -8.1188 Q=    0.4100 A=    0.0000 R=    0.0000 C=    0.0000
 XYZ=   -4.6166    5.0030   -8.4537 Q=    0.4100 A=    0.0000 R=    0.0000 C=    0.0000
 XYZ=   -0.2115   -7.9538    5.1383 Q=   -0.8200 A=    0.0000 R=    0.0000 C=    0.0000
 XYZ=   -0.9628   -7.7314    5.7597 Q=    0.4100 A=    0.0000 R=    0.0000 C=    0.0000
 XYZ=   -0.4372   -8.7823    4.6256 Q=    0.4100 A=    0.0000 R=    0.0000 C=    0.0000
 XYZ=    6.2348    7.1739    0.7038 Q=   -0.8200 A=    0.0000 R=    0.0000 C=    0.0000
 XYZ=    6.7378    8.0021    0.9512 Q=    0.4100 A=    0.0000 R=    0.0000 C=    0.0000
 XYZ=    6.1575    6.5794    1.5042 Q=    0.4100 A=    0.0000 R=    0.0000 C=    0.0000
 XYZ=    0.6060   -8.3837   -7.8748 Q=   -0.8200 A=    0.0000 R=    0.0000 C=    0.0000
 XYZ=   -0.2185   -8.5564   -7.3358 Q=    0.4100 A=    0.0000 R=    0.0000 C=    0.0000
 XYZ=    1.3588   -8.1397   -7.2634 Q=    0.4100 A=    0.0000 R=    0.0000 C=    0.0000
 XYZ=    7.1406    4.1209   -2.3740 Q=   -0.8200 A=    0.0000 R=    0.0000 C=    0.0000
 XYZ=    7.6142    3.4011   -1.8664 Q=    0.4100 A=    0.0000 R=    0.0000 C=    0.0000
 XYZ=    7.2029    4.9814   -1.8683 Q=    0.4100 A=    0.0000 R=    0.0000 C=    0.0000
 XYZ=    1.8947    1.0359  -10.2107 Q=   -0.8200 A=    0.0000 R=    0.0000 C=    0.0000
 XYZ=    1.7819    2.0244  -10.3125 Q=    0.4100 A=    0.0000 R=    0.0000 C=    0.0000
 XYZ=    0.9955    0.6005  -10.1680 Q=    0.4100 A=    0.0000 R=    0.0000 C=    0.0000
 XYZ=   -1.7031   -9.7757   -0.3462 Q=   -0.8200 A=    0.0000 R=    0.0000 C=    0.0000
 XYZ=   -1.0354  -10.3047    0.1776 Q=    0.4100 A=    0.0000 R=    0.0000 C=    0.0000
 XYZ=   -2.3350  -10.3992   -0.8066 Q=    0.4100 A=    0.0000 R=    0.0000 C=    0.0000
 XYZ=   -3.1575   -9.2634    1.4179 Q=   -0.8200 A=    0.0000 R=    0.0000 C=    0.0000
 XYZ=   -4.0561   -8.9398    1.1216 Q=    0.4100 A=    0.0000 R=    0.0000 C=    0.0000
 XYZ=   -2.6025   -9.4862    0.6164 Q=    0.4100 A=    0.0000 R=    0.0000 C=    0.0000
 XYZ=    0.7833   10.9003    0.0694 Q=   -0.8200 A=    0.0000 R=    0.0000 C=    0.0000
 XYZ=    1.6529   11.3170   -0.1957 Q=    0.4100 A=    0.0000 R=    0.0000 C=    0.0000
 XYZ=    0.5581   10.1643   -0.5690 Q=    0.4100 A=    0.0000 R=    0.0000 C=    0.0000
 XYZ=    0.5295   -4.9759  -10.4627 Q=   -0.8200 A=    0.0000 R=    0.0000 C=    0.0000
 XYZ=    0.9472   -4.0734  -10.5684 Q=    0.4100 A=    0.0000 R=    0.0000 C=    0.0000
 XYZ=    0.9582   -5.4538   -9.6959 Q=    0.4100 A=    0.0000 R=    0.0000 C=    0.0000
 XYZ=   -7.7371    6.0153    3.0020 Q=   -0.8200 A=    0.0000 R=    0.0000 C=    0.0000
 XYZ=   -8.0032    5.8551    3.9525 Q=    0.4100 A=    0.0000 R=    0.0000 C=    0.0000
 XYZ=   -8.2966    5.4468    2.3988 Q=    0.4100 A=    0.0000 R=    0.0000 C=    0.0000
 XYZ=    9.6525   -1.4926   -3.6892 Q=   -0.8200 A=    0.0000 R=    0.0000 C=    0.0000
 XYZ=    8.9151   -1.5783   -3.0191 Q=    0.4100 A=    0.0000 R=    0.0000 C=    0.0000
 XYZ=   10.5270   -1.6998   -3.2506 Q=    0.4100 A=    0.0000 R=    0.0000 C=    0.0000
 XYZ=    5.7344    4.6903    6.5871 Q=   -0.8200 A=    0.0000 R=    0.0000 C=    0.0000
 XYZ=    6.0862    5.6264    6.5981 Q=    0.4100 A=    0.0000 R=    0.0000 C=    0.0000
 XYZ=    6.4989    4.0466    6.6227 Q=    0.4100 A=    0.0000 R=    0.0000 C=    0.0000
 XYZ=    5.4639    4.6108   -5.6815 Q=   -0.8200 A=    0.0000 R=    0.0000 C=    0.0000
 XYZ=    5.9816    5.4663   -5.6878 Q=    0.4100 A=    0.0000 R=    0.0000 C=    0.0000
 XYZ=    5.9812    3.9046   -6.1650 Q=    0.4100 A=    0.0000 R=    0.0000 C=    0.0000
 XYZ=   -3.0366   -0.2491  -10.7533 Q=   -0.8200 A=    0.0000 R=    0.0000 C=    0.0000
 XYZ=   -2.6042   -1.0277  -10.2985 Q=    0.4100 A=    0.0000 R=    0.0000 C=    0.0000
 XYZ=   -3.9871   -0.4741  -10.9677 Q=    0.4100 A=    0.0000 R=    0.0000 C=    0.0000
 XYZ=    1.5367   -2.7863  -10.9058 Q=   -0.8200 A=    0.0000 R=    0.0000 C=    0.0000
 XYZ=    2.3093   -2.4717  -10.3542 Q=    0.4100 A=    0.0000 R=    0.0000 C=    0.0000
 XYZ=    1.5631   -2.3411  -11.8008 Q=    0.4100 A=    0.0000 R=    0.0000 C=    0.0000
 XYZ=   -7.2499   -3.5382    4.6350 Q=   -0.8200 A=    0.0000 R=    0.0000 C=    0.0000
 XYZ=   -8.1469   -3.1102    4.5243 Q=    0.4100 A=    0.0000 R=    0.0000 C=    0.0000
 XYZ=   -6.6713   -2.9562    5.2065 Q=    0.4100 A=    0.0000 R=    0.0000 C=    0.0000
 XYZ=    9.3761    3.2006    0.9778 Q=   -0.8200 A=    0.0000 R=    0.0000 C=    0.0000
 XYZ=    8.6104    3.4376    1.5759 Q=    0.4100 A=    0.0000 R=    0.0000 C=    0.0000
 XYZ=   10.2341    3.4814    1.4078 Q=    0.4100 A=    0.0000 R=    0.0000 C=    0.0000
 XYZ=   -2.9639    8.8841   -5.7849 Q=   -0.8200 A=    0.0000 R=    0.0000 C=    0.0000
 XYZ=   -3.7190    8.7374   -5.1458 Q=    0.4100 A=    0.0000 R=    0.0000 C=    0.0000
 XYZ=   -2.5547    8.0038   -6.0250 Q=    0.4100 A=    0.0000 R=    0.0000 C=    0.0000
 XYZ=   -9.6149    4.0401   -0.6126 Q=   -0.8200 A=    0.0000 R=    0.0000 C=    0.0000
 XYZ=   -8.9742    4.2945   -1.3370 Q=    0.4100 A=    0.0000 R=    0.0000 C=    0.0000
 XYZ=   -9.3545    4.4967    0.2381 Q=    0.4100 A=    0.0000 R=    0.0000 C=    0.0000
 XYZ=    0.7982   11.0352    2.3618 Q=   -0.8200 A=    0.0000 R=    0.0000 C=    0.0000
 XYZ=    0.4709   10.1688    2.7391 Q=    0.4100 A=    0.0000 R=    0.0000 C=    0.0000
 XYZ=    0.8265   10.9746    1.3640 Q=    0.4100 A=    0.0000 R=    0.0000 C=    0.0000
 XYZ=   -1.0615  -10.8045   -4.7862 Q=   -0.8200 A=    0.0000 R=    0.0000 C=    0.0000
 XYZ=   -0.7006  -10.1482   -4.1235 Q=    0.4100 A=    0.0000 R=    0.0000 C=    0.0000
 XYZ=   -1.2284  -10.3414   -5.6568 Q=    0.4100 A=    0.0000 R=    0.0000 C=    0.0000
 XYZ=    6.4890   -0.2404    8.4312 Q=   -0.8200 A=    0.0000 R=    0.0000 C=    0.0000
 XYZ=    6.0261    0.6248    8.2383 Q=    0.4100 A=    0.0000 R=    0.0000 C=    0.0000
 XYZ=    7.4216   -0.0572    8.7424 Q=    0.4100 A=    0.0000 R=    0.0000 C=    0.0000
 XYZ=    9.8320   -3.9713    0.8873 Q=   -0.8200 A=    0.0000 R=    0.0000 C=    0.0000
 XYZ=    8.9981   -4.3578    1.2812 Q=    0.4100 A=    0.0000 R=    0.0000 C=    0.0000
 XYZ=   10.5476   -4.6697    0.8709 Q=    0.4100 A=    0.0000 R=    0.0000 C=    0.0000
 XYZ=  -10.3213    0.9809    2.6128 Q=   -0.8200 A=    0.0000 R=    0.0000 C=    0.0000
 XYZ=   -9.3317    1.1151    2.5611 Q=    0.4100 A=    0.0000 R=    0.0000 C=    0.0000
 XYZ=  -10.5898    0.2397    1.9976 Q=    0.4100 A=    0.0000 R=    0.0000 C=    0.0000
 XYZ=    8.5257   -2.0212   -5.6564 Q=   -0.8200 A=    0.0000 R=    0.0000 C=    0.0000
 XYZ=    9.0612   -1.6467   -4.8995 Q=    0.4100 A=    0.0000 R=    0.0000 C=    0.0000
 XYZ=    8.1276   -2.8966   -5.3819 Q=    0.4100 A=    0.0000 R=    0.0000 C=    0.0000
 XYZ=    7.6678   -7.6689    1.9453 Q=   -0.8200 A=    0.0000 R=    0.0000 C=    0.0000
 XYZ=    7.8162   -6.6833    1.8634 Q=    0.4100 A=    0.0000 R=    0.0000 C=    0.0000
 XYZ=    6.6871   -7.8620    1.9139 Q=    0.4100 A=    0.0000 R=    0.0000 C=    0.0000
 XYZ=   -3.2391   -6.3183  -10.1671 Q=   -0.8200 A=    0.0000 R=    0.0000 C=    0.0000
 XYZ=   -3.7546   -5.6482  -10.7011 Q=    0.4100 A=    0.0000 R=    0.0000 C=    0.0000
 XYZ=   -2.6973   -5.8452   -9.4724 Q=    0.4100 A=    0.0000 R=    0.0000 C=    0.0000
 XYZ=   -8.2154    5.3077    5.4351 Q=   -0.8200 A=    0.0000 R=    0.0000 C=    0.0000
 XYZ=   -7.6005    4.5220    5.5027 Q=    0.4100 A=    0.0000 R=    0.0000 C=    0.0000
 XYZ=   -7.7740    6.1116    5.8339 Q=    0.4100 A=    0.0000 R=    0.0000 C=    0.0000
 XYZ=    5.5994    1.5042   -8.3662 Q=   -0.8200 A=    0.0000 R=    0.0000 C=    0.0000
 XYZ=    6.1239    2.1740   -7.8405 Q=    0.4100 A=    0.0000 R=    0.0000 C=    0.0000
 XYZ=    6.0172    0.6011   -8.2662 Q=    0.4100 A=    0.0000 R=    0.0000 C=    0.0000
 XYZ=   -1.8039   -3.9254  -10.9393 Q=   -0.8200 A=    0.0000 R=    0.0000 C=    0.0000
 XYZ=   -1.1649   -4.5804  -10.5360 Q=    0.4100 A=    0.0000 R=    0.0000 C=    0.0000
 XYZ=   -1.5744   -3.7858  -11.9026 Q=    0.4100 A=    0.0000 R=    0.0000 C=    0.0000
 XYZ=   -2.1386   -7.0885    6.2705 Q=   -0.8200 A=    0.0000 R=    0.0000 C=    0.0000
 XYZ=   -1.7230   -6.8554    7.1497 Q=    0.4100 A=    0.0000 R=    0.0000 C=    0.0000
 XYZ=   -3.0935   -7.3498    6.4121 Q=    0.4100 A=    0.0000 R=    0.0000 C=    0.0000
 XYZ=   -5.2292   -8.6204    0.4402 Q=   -0.8200 A=    0.0000 R=    0.0000 C=    0.0000
 XYZ=   -5.9935   -8.8299    1.0502 Q=    0.4100 A=    0.0000 R=    0.0000 C=    0.0000
 XYZ=   -5.2516   -9.2378   -0.3462 Q=    0.4100 A=    0.0000 R=    0.0000 C=    0.0000
 XYZ=   -7.3337    8.5119    2.7985 Q=   -0.8200 A=    0.0000 R=    0.0000 C=    0.0000
 XYZ=   -7.3476    7.5182    2.6868 Q=    0.4100 A=    0.0000 R=    0.0000 C=    0.0000
 XYZ=   -7.2198    8.7369    3.7662 Q=    0.4100 A=    0.0000 R=    0.0000 C=    0.0000
 XYZ=   -5.9692   -7.1762    4.7366 Q=   -0.8200 A=    0.0000 R=    0.0000 C=    0.0000
 XYZ=   -5.3986   -6.6043    4.1472 Q=    0.4100 A=    0.0000 R=    0.0000 C=    0.0000
 XYZ=   -6.8115   -6.6865    4.9618 Q=    0.4100 A=    0.0000 R=    0.0000 C=    0.0000
 XYZ=   -5.7194    4.7475    8.6676 Q=   -0.8200 A=    0.0000 R=    0.0000 C=    0.0000
 XYZ=   -6.2734    5.5788    8.7125 Q=    0.4100 A=    0.0000 R=    0.0000 C=    0.0000
 XYZ=   -5.0915    4.8069    7.8915 Q=    0.4100 A=    0.0000 R=    0.0000 C=    0.0000
 XYZ=   -3.1944    6.8114    8.6760 Q=   -0.8200 A=    0.0000 R=    0.0000 C=    0.0000
 XYZ=   -3.5230    6.1025    8.0518 Q=    0.4100 A=    0.0000 R=    0.0000 C=    0.0000
 XYZ=   -3.9752    7.2664    9.1041 Q=    0.4100 A=    0.0000 R=    0.0000 C=    0.0000
 XYZ=   -0.5708   -3.2018    9.8963 Q=   -0.8200 A=    0.0000 R=    0.0000 C=    0.0000
 XYZ=    0.1402   -3.8053    9.5352 Q=    0.4100 A=    0.0000 R=    0.0000 C=    0.0000
 XYZ=   -1.2567   -3.7464   10.3789 Q=    0.4100 A=    0.0000 R=    0.0000 C=    0.0000
 XYZ=    7.3496    2.9329    7.0394 Q=   -0.8200 A=    0.0000 R=    0.0000 C=    0.0000
 XYZ=    7.8044    2.8880    6.1499 Q=    0.4100 A=    0.0000 R=    0.0000 C=    0.0000
 XYZ=    8.0369    3.0116    7.7616 Q=    0.4100 A=    0.0000 R=    0.0000 C=    0.0000
 XYZ=    7.7599    6.1164   -0.8872 Q=   -0.8200 A=    0.0000 R=    0.0000 C=    0.0000
 XYZ=    7.0173    6.5952   -0.4190 Q=    0.4100 A=    0.0000 R=    0.0000 C=    0.0000
 XYZ=    8.3029    5.6086   -0.2184 Q=    0.4100 A=    0.0000 R=    0.0000 C=    0.0000
 XYZ=   10.3240    1.0757    0.9951 Q=   -0.8200 A=    0.0000 R=    0.0000 C=    0.0000
 XYZ=    9.6073    0.4206    1.2342 Q=    0.4100 A=    0.0000 R=    0.0000 C=    0.0000
 XYZ=    9.9199    1.9824    0.8743 Q=    0.4100 A=    0.0000 R=    0.0000 C=    0.0000
 XYZ=   -8.0807   -6.5061    1.5568 Q=   -0.8200 A=    0.0000 R=    0.0000 C=    0.0000
 XYZ=   -8.6611   -6.9728    0.8894 Q=    0.4100 A=    0.0000 R=    0.0000 C=    0.0000
 XYZ=   -7.5804   -5.7676    1.1047 Q=    0.4100 A=    0.0000 R=    0.0000 C=    0.0000
 XYZ=   -2.6979    4.9366    9.9141 Q=   -0.8200 A=    0.0000 R=    0.0000 C=    0.0000
 XYZ=   -2.9128    5.8387    9.5398 Q=    0.4100 A=    0.0000 R=    0.0000 C=    0.0000
 XYZ=   -2.2715    4.3746    9.2053 Q=    0.4100 A=    0.0000 R=    0.0000 C=    0.0000
 XYZ=   -0.3441    5.2652  -10.5473 Q=   -0.8200 A=    0.0000 R=    0.0000 C=    0.0000
 XYZ=   -0.7799    4.4611  -10.9517 Q=    0.4100 A=    0.0000 R=    0.0000 C=    0.0000
 XYZ=   -0.2049    5.1121   -9.5689 Q=    0.4100 A=    0.0000 R=    0.0000 C=    0.0000
 XYZ=    1.7930    3.2362  -10.6163 Q=   -0.8200 A=    0.0000 R=    0.0000 C=    0.0000
 XYZ=    2.0096    3.6461   -9.7302 Q=    0.4100 A=    0.0000 R=    0.0000 C=    0.0000
 XYZ=    1.6448    3.9595  -11.2908 Q=    0.4100 A=    0.0000 R=    0.0000 C=    0.0000
 XYZ=    4.7960    5.3357    8.6222 Q=   -0.8200 A=    0.0000 R=    0.0000 C=    0.0000
 XYZ=    5.3005    6.1470    8.9177 Q=    0.4100 A=    0.0000 R=    0.0000 C=    0.0000
 XYZ=    5.1491    5.0270    7.7390 Q=    0.4100 A=    0.0000 R=    0.0000 C=    0.0000
 XYZ=   -8.9930    3.1175   -6.8823 Q=   -0.8200 A=    0.0000 R=    0.0000 C=    0.0000
 XYZ=   -9.4028    3.5380   -6.0727 Q=    0.4100 A=    0.0000 R=    0.0000 C=    0.0000
 XYZ=   -8.0470    3.4278   -6.9762 Q=    0.4100 A=    0.0000 R=    0.0000 C=    0.0000
 XYZ=   -9.9783    2.0503   -3.6079 Q=   -0.8200 A=    0.0000 R=    0.0000 C=    0.0000
 XYZ=  -10.2245    1.8689   -2.6558 Q=    0.4100 A=    0.0000 R=    0.0000 C=    0.0000
 XYZ=  -10.6008    1.5545   -4.2135 Q=    0.4100 A=    0.0000 R=    0.0000 C=    0.0000
 XYZ=    6.7934   -4.5605   -7.6477 Q=   -0.8200 A=    0.0000 R=    0.0000 C=    0.0000
 XYZ=    7.5294   -5.0063   -7.1381 Q=    0.4100 A=    0.0000 R=    0.0000 C=    0.0000
 XYZ=    6.4282   -5.1947   -8.3292 Q=    0.4100 A=    0.0000 R=    0.0000 C=    0.0000
 XYZ=   -8.3627   -5.8158   -2.0174 Q=   -0.8200 A=    0.0000 R=    0.0000 C=    0.0000
 XYZ=   -8.3521   -5.7251   -1.0216 Q=    0.4100 A=    0.0000 R=    0.0000 C=    0.0000
 XYZ=   -8.7086   -6.7206   -2.2660 Q=    0.4100 A=    0.0000 R=    0.0000 C=    0.0000
 XYZ=   -1.2523   -6.4289    8.3056 Q=   -0.8200 A=    0.0000 R=    0.0000 C=    0.0000
 XYZ=   -0.4944   -5.7884    8.4301 Q=    0.4100 A=    0.0000 R=    0.0000 C=    0.0000
 XYZ=   -2.0630   -6.0816    8.7768 Q=    0.4100 A=    0.0000 R=    0.0000 C=    0.0000
 XYZ=    4.7954   -1.4178    9.5043 Q=   -0.8200 A=    0.0000 R=    0.0000 C=    0.0000
 XYZ=    5.5616   -0.8810    9.1509 Q=    0.4100 A=    0.0000 R=    0.0000 C=    0.0000
 XYZ=    5.0915   -1.9303   10.3104 Q=    0.4100 A=    0.0000 R=    0.0000 C=    0.0000
 XYZ=  -10.4715   -1.1417    1.2003 Q=   -0.8200 A=    0.0000 R=    0.0000 C=    0.0000
 XYZ=  -10.1104   -0.7397    0.3588 Q=    0.4100 A=    0.0000 R=    0.0000 C=    0.0000
 XYZ=   -9.7162   -1.3459    1.8230 Q=    0.4100 A=    0.0000 R=    0.0000 C=    0.0000
 XYZ=   -5.4233   -7.2827   -7.8119 Q=   -0.8200 A=    0.0000 R=    0.0000 C=    0.0000
 XYZ=   -4.5552   -7.4713   -8.2712 Q=    0.4100 A=    0.0000 R=    0.0000 C=    0.0000
 XYZ=   -5.3948   -7.6497   -6.8820 Q=    0.4100 A=    0.0000 R=    0.0000 C=    0.0000
 XYZ=   -5.1147  -10.2254   -1.6549 Q=   -0.8200 A=    0.0000 R=    0.0000 C=    0.0000
 XYZ=   -5.8059  -10.9247   -1.8376 Q=    0.4100 A=    0.0000 R=    0.0000 C=    0.0000
 XYZ=   -5.2870   -9.4276   -2.2327 Q=    0.4100 A=    0.0000 R=    0.0000 C=    0.0000
 XYZ=   -8.2115   -0.7562    5.8302 Q=   -0.8200 A=    0.0000 R=    0.0000 C=    0.0000
 XYZ=   -8.7977   -1.3022    5.2317 Q=    0.4100 A=    0.0000 R=    0.0000 C=    0.0000
 XYZ=   -7.5285   -1.3481    6.2581 Q=    0.4100 A=    0.0000 R=    0.0000 C=    0.0000
 XYZ=   -0.3557  -10.8699    1.3526 Q=   -0.8200 A=    0.0000 R=    0.0000 C=    0.0000
 XYZ=    0.6333  -10.9769    1.4547 Q=    0.4100 A=    0.0000 R=    0.0000 C=    0.0000
 XYZ=   -0.7519  -11.7282    1.0265 Q=    0.4100 A=    0.0000 R=    0.0000 C=    0.0000
 XYZ=    3.0306   -0.4834  -11.5334 Q=   -0.8200 A=    0.0000 R=    0.0000 C=    0.0000
 XYZ=    2.6370    0.2281  -10.9513 Q=    0.4100 A=    0.0000 R=    0.0000 C=    0.0000
 XYZ=    3.3839   -1.2240  -10.9618 Q=    0.4100 A=    0.0000 R=    0.0000 C=    0.0000
 XYZ=   -1.1096   -0.0626  -12.0825 Q=   -0.8200 A=    0.0000 R=    0.0000 C=    0.0000
 XYZ=   -0.3759   -0.2426  -11.4273 Q=    0.4100 A=    0.0000 R=    0.0000 C=    0.0000
 XYZ=   -1.9834   -0.0120  -11.5988 Q=    0.4100 A=    0.0000 R=    0.0000 C=    0.0000
 XYZ=   -9.5764    4.1228   -4.7528 Q=   -0.8200 A=    0.0000 R=    0.0000 C=    0.0000
 XYZ=   -9.2469    4.7591   -4.0551 Q=    0.4100 A=    0.0000 R=    0.0000 C=    0.0000
 XYZ=   -9.7156    3.2214   -4.3427 Q=    0.4100 A=    0.0000 R=    0.0000 C=    0.0000
 XYZ=  -10.4287    1.8700   -1.3167 Q=   -0.8200 A=    0.0000 R=    0.0000 C=    0.0000
 XYZ=  -11.3887    1.6172   -1.1955 Q=    0.4100 A=    0.0000 R=    0.0000 C=    0.0000
 XYZ=  -10.2718    2.7783   -0.9287 Q=    0.4100 A=    0.0000 R=    0.0000 C=    0.0000
 XYZ=   -3.7994   10.8796    1.7662 Q=   -0.8200 A=    0.0000 R=    0.0000 C=    0.0000
 XYZ=   -4.4242   11.2068    2.4751 Q=    0.4100 A=    0.0000 R=    0.0000 C=    0.0000
 XYZ=   -4.3273   10.5086    1.0021 Q=    0.4100 A=    0.0000 R=    0.0000 C=    0.0000
 XYZ=   11.0283   -1.9345   -1.5037 Q=   -0.8200 A=    0.0000 R=    0.0000 C=    0.0000
 XYZ=   11.8188   -2.0455   -0.9013 Q=    0.4100 A=    0.0000 R=    0.0000 C=    0.0000
 XYZ=   10.1893   -1.9556   -0.9598 Q=    0.4100 A=    0.0000 R=    0.0000 C=    0.0000
 XYZ=    6.9016    3.0759   -7.0083 Q=   -0.8200 A=    0.0000 R=    0.0000 C=    0.0000
 XYZ=    7.5457    3.6697   -7.4906 Q=    0.4100 A=    0.0000 R=    0.0000 C=    0.0000
 XYZ=    7.3831    2.5788   -6.2864 Q=    0.4100 A=    0.0000 R=    0.0000 C=    0.0000
 XYZ=   -9.3092   -2.3269    4.3439 Q=   -0.8200 A=    0.0000 R=    0.0000 C=    0.0000
 XYZ=   -9.0385   -1.8447    3.5106 Q=    0.4100 A=    0.0000 R=    0.0000 C=    0.0000
 XYZ=   -9.9373   -3.0691    4.1103 Q=    0.4100 A=    0.0000 R=    0.0000 C=    0.0000
 XYZ=    1.1896    4.8218    9.9712 Q=   -0.8200 A=    0.0000 R=    0.0000 C=    0.0000
 XYZ=    0.4644    4.8751   10.6577 Q=    0.4100 A=    0.0000 R=    0.0000 C=    0.0000
 XYZ=    1.7015    3.9713   10.0926 Q=    0.4100 A=    0.0000 R=    0.0000 C=    0.0000
 XYZ=   -5.0193    3.1969  -10.8130 Q=   -0.8200 A=    0.0000 R=    0.0000 C=    0.0000
 XYZ=   -5.7223    2.4914  -10.9029 Q=    0.4100 A=    0.0000 R=    0.0000 C=    0.0000
 XYZ=   -4.2221    2.8152  -10.3453 Q=    0.4100 A=    0.0000 R=    0.0000 C=    0.0000
 XYZ=    0.2968   10.1122    6.9942 Q=   -0.8200 A=    0.0000 R=    0.0000 C=    0.0000
 XYZ=    0.3109    9.3225    6.3808 Q=    0.4100 A=    0.0000 R=    0.0000 C=    0.0000
 XYZ=    0.8581   10.8443    6.6081 Q=    0.4100 A=    0.0000 R=    0.0000 C=    0.0000
 XYZ=    7.7482    7.0460    4.6626 Q=   -0.8200 A=    0.0000 R=    0.0000 C=    0.0000
 XYZ=    8.5341    6.4310    4.7265 Q=    0.4100 A=    0.0000 R=    0.0000 C=    0.0000
 XYZ=    7.1129    6.7041    3.9701 Q=    0.4100 A=    0.0000 R=    0.0000 C=    0.0000
 XYZ=   -4.1171   -4.2601  -10.8798 Q=   -0.8200 A=    0.0000 R=    0.0000 C=    0.0000
 XYZ=   -4.5167   -3.5851  -11.5000 Q=    0.4100 A=    0.0000 R=    0.0000 C=    0.0000
 XYZ=   -3.1254   -4.1356  -10.8459 Q=    0.4100 A=    0.0000 R=    0.0000 C=    0.0000
 XYZ=   -5.2755   10.4383   -0.1751 Q=   -0.8200 A=    0.0000 R=    0.0000 C=    0.0000
 XYZ=   -5.6803   11.2139   -0.6596 Q=    0.4100 A=    0.0000 R=    0.0000 C=    0.0000
 XYZ=   -5.9943    9.7892    0.0741 Q=    0.4100 A=    0.0000 R=    0.0000 C=    0.0000
 XYZ=    8.1886    2.2116   -5.3765 Q=   -0.8200 A=    0.0000 R=    0.0000 C=    0.0000
 XYZ=    8.3890    3.1147   -4.9964 Q=    0.4100 A=    0.0000 R=    0.0000 C=    0.0000
 XYZ=    8.8134    1.5379   -4.9820 Q=    0.4100 A=    0.0000 R=    0.0000 C=    0.0000
 XYZ=   -1.3562    3.4725  -11.4721 Q=   -0.8200 A=    0.0000 R=    0.0000 C=    0.0000
 XYZ=   -2.0449    3.0205  -10.9051 Q=    0.4100 A=    0.0000 R=    0.0000 C=    0.0000
 XYZ=   -0.8135    2.7824  -11.9510 Q=    0.4100 A=    0.0000 R=    0.0000 C=    0.0000
 XYZ=    4.7645    3.0867    9.6329 Q=   -0.8200 A=    0.0000 R=    0.0000 C=    0.0000
 XYZ=    5.1437    3.1750   10.5540 Q=    0.4100 A=    0.0000 R=    0.0000 C=    0.0000
 XYZ=    4.8318    3.9648    9.1591 Q=    0.4100 A=    0.0000 R=    0.0000 C=    0.0000
 XYZ=   -7.2216    0.4918   -9.0325 Q=   -0.8200 A=    0.0000 R=    0.0000 C=    0.0000
 XYZ=   -8.0990    0.9218   -8.8195 Q=    0.4100 A=    0.0000 R=    0.0000 C=    0.0000
 XYZ=   -7.3089   -0.5012   -8.9525 Q=    0.4100 A=    0.0000 R=    0.0000 C=    0.0000
 XYZ=    7.3897   -2.5254   -9.0760 Q=   -0.8200 A=    0.0000 R=    0.0000 C=    0.0000
 XYZ=    7.1210   -1.6932   -8.5910 Q=    0.4100 A=    0.0000 R=    0.0000 C=    0.0000
 XYZ=    7.3762   -3.2993   -8.4427 Q=    0.4100 A=    0.0000 R=    0.0000 C=    0.0000
 XYZ=    3.5289   -0.0920   11.1315 Q=   -0.8200 A=    0.0000 R=    0.0000 C=    0.0000
 XYZ=    3.9625   -0.6061   10.3914 Q=    0.4100 A=    0.0000 R=    0.0000 C=    0.0000
 XYZ=    4.2303    0.3846   11.6616 Q=    0.4100 A=    0.0000 R=    0.0000 C=    0.0000
 XYZ=   -5.9049   -4.9079   -9.2733 Q=   -0.8200 A=    0.0000 R=    0.0000 C=    0.0000
 XYZ=   -5.1145   -4.6101   -9.8087 Q=    0.4100 A=    0.0000 R=    0.0000 C=    0.0000
 XYZ=   -5.7136   -5.8006   -8.8651 Q=    0.4100 A=    0.0000 R=    0.0000 C=    0.0000
 XYZ=   -5.7040    4.6292   -9.1438 Q=   -0.8200 A=    0.0000 R=    0.0000 C=    0.0000
 XYZ=   -6.0889    5.3996   -9.6522 Q=    0.4100 A=    0.0000 R=    0.0000 C=    0.0000
 XYZ=   -5.4184    3.9164   -9.7845 Q=    0.4100 A=    0.0000 R=    0.0000 C=    0.0000
 XYZ=   -3.4351   -8.0826   -8.6488 Q=   -0.8200 A=    0.0000 R=    0.0000 C=    0.0000
 XYZ=   -3.3461   -7.6000   -9.5202 Q=    0.4100 A=    0.0000 R=    0.0000 C=    0.0000
 XYZ=   -3.0900   -9.0159   -8.7480 Q=    0.4100 A=    0.0000 R=    0.0000 C=    0.0000
 XYZ=   -7.2668    2.8371    7.9119 Q=   -0.8200 A=    0.0000 R=    0.0000 C=    0.0000
 XYZ=   -7.2609    2.2215    8.7000 Q=    0.4100 A=    0.0000 R=    0.0000 C=    0.0000
 XYZ=   -6.6955    3.6343    8.1074 Q=    0.4100 A=    0.0000 R=    0.0000 C=    0.0000
 XYZ=   -7.1819    9.1905    0.3953 Q=   -0.8200 A=    0.0000 R=    0.0000 C=    0.0000
 XYZ=   -7.8172    9.9043    0.1004 Q=    0.4100 A=    0.0000 R=    0.0000 C=    0.0000
 XYZ=   -7.4199    8.8939    1.3202 Q=    0.4100 A=    0.0000 R=    0.0000 C=    0.0000
 XYZ=   -3.0027  -10.6766    3.1988 Q=   -0.8200 A=    0.0000 R=    0.0000 C=    0.0000
 XYZ=   -2.1284  -10.2639    3.4544 Q=    0.4100 A=    0.0000 R=    0.0000 C=    0.0000
 XYZ=   -3.3332  -10.2596    2.3522 Q=    0.4100 A=    0.0000 R=    0.0000 C=    0.0000
 XYZ=    9.6649    0.7954   -4.3087 Q=   -0.8200 A=    0.0000 R=    0.0000 C=    0.0000
 XYZ=   10.0837    1.2485   -3.5217 Q=    0.4100 A=    0.0000 R=    0.0000 C=    0.0000
 XYZ=    9.6937   -0.1956   -4.1770 Q=    0.4100 A=    0.0000 R=    0.0000 C=    0.0000
 XYZ=    8.6955    4.4024   -4.3091 Q=   -0.8200 A=    0.0000 R=    0.0000 C=    0.0000
 XYZ=    8.2256    4.0929   -3.4824 Q=    0.4100 A=    0.0000 R=    0.0000 C=    0.0000
 XYZ=    9.6677    4.5289   -4.1122 Q=    0.4100 A=    0.0000 R=    0.0000 C=    0.0000
 XYZ=   -2.9524  -11.3367   -1.4913 Q=   -0.8200 A=    0.0000 R=    0.0000 C=    0.0000
 XYZ=   -2.6592  -11.8361   -2.3065 Q=    0.4100 A=    0.0000 R=    0.0000 C=    0.0000
 XYZ=   -3.7593  -10.7875   -1.7092 Q=    0.4100 A=    0.0000 R=    0.0000 C=    0.0000
 XYZ=    0.1464   -1.5555   11.8867 Q=   -0.8200 A=    0.0000 R=    0.0000 C=    0.0000
 XYZ=   -0.0885   -1.9882   11.0163 Q=    0.4100 A=    0.0000 R=    0.0000 C=    0.0000
 XYZ=   -0.6661   -1.1172   12.2710 Q=    0.4100 A=    0.0000 R=    0.0000 C=    0.0000
 XYZ=    8.6297   -6.2541   -4.2491 Q=   -0.8200 A=    0.0000 R=    0.0000 C=    0.0000
 XYZ=    8.4660   -6.0421   -5.2126 Q=    0.4100 A=    0.0000 R=    0.0000 C=    0.0000
 XYZ=    9.5234   -6.6923   -4.1515 Q=    0.4100 A=    0.0000 R=    0.0000 C=    0.0000
 XYZ=   -4.5512    9.9090    4.8024 Q=   -0.8200 A=    0.0000 R=    0.0000 C=    0.0000
 XYZ=   -3.9945   10.4293    5.4500 Q=    0.4100 A=    0.0000 R=    0.0000 C=    0.0000
 XYZ=   -4.9602   10.5338    4.1372 Q=    0.4100 A=    0.0000 R=    0.0000 C=    0.0000
 XYZ=    9.2289    5.1486    5.1968 Q=   -0.8200 A=    0.0000 R=    0.0000 C=    0.0000
 XYZ=    8.8217    4.2367    5.1453 Q=    0.4100 A=    0.0000 R=    0.0000 C=    0.0000
 XYZ=    9.2087    5.4697    6.1437 Q=    0.4100 A=    0.0000 R=    0.0000 C=    0.0000
 XYZ=    7.9944   -8.9692   -0.0596 Q=   -0.8200 A=    0.0000 R=    0.0000 C=    0.0000
 XYZ=    7.8889   -8.5000    0.8172 Q=    0.4100 A=    0.0000 R=    0.0000 C=    0.0000
 XYZ=    8.5462   -9.7934    0.0678 Q=    0.4100 A=    0.0000 R=    0.0000 C=    0.0000
 XYZ=   10.6611    1.8477   -2.4265 Q=   -0.8200 A=    0.0000 R=    0.0000 C=    0.0000
 XYZ=    9.8572    2.1814   -1.9340 Q=    0.4100 A=    0.0000 R=    0.0000 C=    0.0000
 XYZ=   11.2352    1.3147   -1.8049 Q=    0.4100 A=    0.0000 R=    0.0000 C=    0.0000
 XYZ=  -11.8034   -0.8679   -1.9132 Q=   -0.8200 A=    0.0000 R=    0.0000 C=    0.0000
 XYZ=  -12.2354    0.0089   -1.7016 Q=    0.4100 A=    0.0000 R=    0.0000 C=    0.0000
 XYZ=  -10.9368   -0.9402   -1.4195 Q=    0.4100 A=    0.0000 R=    0.0000 C=    0.0000
 XYZ=   -0.8790   12.5946   -0.7106 Q=   -0.8200 A=    0.0000 R=    0.0000 C=    0.0000
 XYZ=   -0.3644   11.7661   -0.4897 Q=    0.4100 A=    0.0000 R=    0.0000 C=    0.0000
 XYZ=   -1.6146   12.7177   -0.0444 Q=    0.4100 A=    0.0000 R=    0.0000 C=    0.0000
 XYZ=   -6.9652    7.1706    6.2992 Q=   -0.8200 A=    0.0000 R=    0.0000 C=    0.0000
 XYZ=   -7.0653    8.1327    6.0456 Q=    0.4100 A=    0.0000 R=    0.0000 C=    0.0000
 XYZ=   -6.9065    7.0927    7.2945 Q=    0.4100 A=    0.0000 R=    0.0000 C=    0.0000
 XYZ=   -8.6510    0.8436    7.5485 Q=   -0.8200 A=    0.0000 R=    0.0000 C=    0.0000
 XYZ=   -8.4589    0.1879    6.8183 Q=    0.4100 A=    0.0000 R=    0.0000 C=    0.0000
 XYZ=   -8.0899    1.6611    7.4184 Q=    0.4100 A=    0.0000 R=    0.0000 C=    0.0000
 XYZ=    1.4700    2.0851   11.9773 Q=   -0.8200 A=    0.0000 R=    0.0000 C=    0.0000
 XYZ=    1.9401    2.3584   11.1380 Q=    0.4100 A=    0.0000 R=    0.0000 C=    0.0000
 XYZ=    1.6538    1.1198   12.1630 Q=    0.4100 A=    0.0000 R=    0.0000 C=    0.0000
 XYZ=  -10.7194    3.4387    2.5629 Q=   -0.8200 A=    0.0000 R=    0.0000 C=    0.0000
 XYZ=  -11.4461    3.5354    1.8829 Q=    0.4100 A=    0.0000 R=    0.0000 C=    0.0000
 XYZ=  -10.5631    2.4684    2.7480 Q=    0.4100 A=    0.0000 R=    0.0000 C=    0.0000
 XYZ=    0.5922   -9.5525   -9.9113 Q=   -0.8200 A=    0.0000 R=    0.0000 C=    0.0000
 XYZ=    0.7617   -9.0732  -10.7724 Q=    0.4100 A=    0.0000 R=    0.0000 C=    0.0000
 XYZ=    0.5023   -8.8862   -9.1710 Q=    0.4100 A=    0.0000 R=    0.0000 C=    0.0000
 XYZ=    5.6958   -5.6933   -9.4243 Q=   -0.8200 A=    0.0000 R=    0.0000 C=    0.0000
 XYZ=    5.9633   -6.4308  -10.0445 Q=    0.4100 A=    0.0000 R=    0.0000 C=    0.0000
 XYZ=    5.8839   -4.8108   -9.8553 Q=    0.4100 A=    0.0000 R=    0.0000 C=    0.0000
 XYZ=   -0.7621    2.3738   11.2826 Q=   -0.8200 A=    0.0000 R=    0.0000 C=    0.0000
 XYZ=    0.1485    2.0767   11.5700 Q=    0.4100 A=    0.0000 R=    0.0000 C=    0.0000
 XYZ=   -0.7825    3.3716   11.2190 Q=    0.4100 A=    0.0000 R=    0.0000 C=    0.0000
 XYZ=   -5.1875   -0.7742  -10.8404 Q=   -0.8200 A=    0.0000 R=    0.0000 C=    0.0000
 XYZ=   -5.7557    0.0301  -10.6667 Q=    0.4100 A=    0.0000 R=    0.0000 C=    0.0000
 XYZ=   -5.7239   -1.4618  -11.3298 Q=    0.4100 A=    0.0000 R=    0.0000 C=    0.0000
 XYZ=   -6.9406   -8.6053    1.8910 Q=   -0.8200 A=    0.0000 R=    0.0000 C=    0.0000
 XYZ=   -7.2826   -7.6656    1.8941 Q=    0.4100 A=    0.0000 R=    0.0000 C=    0.0000
 XYZ=   -6.7804   -8.9048    2.8316 Q=    0.4100 A=    0.0000 R=    0.0000 C=    0.0000
 XYZ=    1.4574   -6.3417  -12.0816 Q=   -0.8200 A=    0.0000 R=    0.0000 C=    0.0000
 XYZ=    0.9968   -5.8370  -11.3515 Q=    0.4100 A=    0.0000 R=    0.0000 C=    0.0000
 XYZ=    2.3884   -5.9935  -12.1915 Q=    0.4100 A=    0.0000 R=    0.0000 C=    0.0000
 XYZ=   -4.4012   -7.8328    6.5250 Q=   -0.8200 A=    0.0000 R=    0.0000 C=    0.0000
 XYZ=   -5.0082   -7.5555    5.7802 Q=    0.4100 A=    0.0000 R=    0.0000 C=    0.0000
 XYZ=   -4.7181   -7.4265    7.3821 Q=    0.4100 A=    0.0000 R=    0.0000 C=    0.0000
 XYZ=   -7.9491   -5.9324    5.3196 Q=   -0.8200 A=    0.0000 R=    0.0000 C=    0.0000
 XYZ=   -8.6825   -6.2264    4.7067 Q=    0.4100 A=    0.0000 R=    0.0000 C=    0.0000
 XYZ=   -7.5875   -5.0533    5.0091 Q=    0.4100 A=    0.0000 R=    0.0000 C=    0.0000
 XYZ=   -5.3761   10.5155   -4.7941 Q=   -0.8200 A=    0.0000 R=    0.0000 C=    0.0000
 XYZ=   -5.2159    9.5933   -4.4421 Q=    0.4100 A=    0.0000 R=    0.0000 C=    0.0000
 XYZ=   -4.6291   10.7727   -5.4071 Q=    0.4100 A=    0.0000 R=    0.0000 C=    0.0000
 XYZ=   -6.8432    9.2902    5.1905 Q=   -0.8200 A=    0.0000 R=    0.0000 C=    0.0000
 XYZ=   -7.2810   10.1055    5.5695 Q=    0.4100 A=    0.0000 R=    0.0000 C=    0.0000
 XYZ=   -5.8557    9.4376    5.1348 Q=    0.4100 A=    0.0000 R=    0.0000 C=    0.0000
 XYZ=   -1.1071   12.3871    3.1208 Q=   -0.8200 A=    0.0000 R=    0.0000 C=    0.0000
 XYZ=   -1.8112   12.5661    2.4336 Q=    0.4100 A=    0.0000 R=    0.0000 C=    0.0000
 XYZ=   -0.3611   11.8663    2.7057 Q=    0.4100 A=    0.0000 R=    0.0000 C=    0.0000
 XYZ=    9.4436   -3.6874   -7.1650 Q=   -0.8200 A=    0.0000 R=    0.0000 C=    0.0000
 XYZ=    9.1829   -2.9076   -6.5958 Q=    0.4100 A=    0.0000 R=    0.0000 C=    0.0000
 XYZ=    9.6404   -3.3715   -8.0932 Q=    0.4100 A=    0.0000 R=    0.0000 C=    0.0000
 XYZ=   -7.7369   -1.8039   -9.1080 Q=   -0.8200 A=    0.0000 R=    0.0000 C=    0.0000
 XYZ=   -8.6971   -1.5537   -8.9837 Q=    0.4100 A=    0.0000 R=    0.0000 C=    0.0000
 XYZ=   -7.6753   -2.6007   -9.7092 Q=    0.4100 A=    0.0000 R=    0.0000 C=    0.0000
 XYZ=    3.2510    5.9145   10.4205 Q=   -0.8200 A=    0.0000 R=    0.0000 C=    0.0000
 XYZ=    2.2957    5.6922   10.2256 Q=    0.4100 A=    0.0000 R=    0.0000 C=    0.0000
 XYZ=    3.8323    5.5563    9.6899 Q=    0.4100 A=    0.0000 R=    0.0000 C=    0.0000
 XYZ=   -6.5157    1.4298  -11.0917 Q=   -0.8200 A=    0.0000 R=    0.0000 C=    0.0000
 XYZ=   -6.8822    1.1700  -10.1983 Q=    0.4100 A=    0.0000 R=    0.0000 C=    0.0000
 XYZ=   -7.2270    1.3257  -11.7868 Q=    0.4100 A=    0.0000 R=    0.0000 C=    0.0000
 XYZ=    8.4814   -5.6875   -6.4931 Q=   -0.8200 A=    0.0000 R=    0.0000 C=    0.0000
 XYZ=    9.0945   -4.9420   -6.7547 Q=    0.4100 A=    0.0000 R=    0.0000 C=    0.0000
 XYZ=    8.7881   -6.5372   -6.9221 Q=    0.4100 A=    0.0000 R=    0.0000 C=    0.0000
 XYZ=    6.0608   -3.6157  -10.6534 Q=   -0.8200 A=    0.0000 R=    0.0000 C=    0.0000
 XYZ=    6.3767   -3.4147  -11.5807 Q=    0.4100 A=    0.0000 R=    0.0000 C=    0.0000
 XYZ=    6.6031   -3.0926   -9.9958 Q=    0.4100 A=    0.0000 R=    0.0000 C=    0.0000
[...]
    38  H   -0.002383  -0.003415   0.000000   0.000000   0.000000   0.000000
    39  O    0.000000   0.000000  -0.000455   0.000036  -0.000118  -0.013328
    40  H    0.000000   0.000000   0.000004   0.000000  -0.000003   0.000011
    41  H    0.000000   0.000000   0.000069  -0.000007  -0.000022   0.008171
    42  O    0.000000   0.000000   0.000000   0.000000   0.000000   0.000001
    43  H    0.000000   0.000000   0.000000   0.000000   0.000000   0.000000
    44  H    0.000000   0.000000   0.000000   0.000000   0.000000   0.000000
    45  O    0.000000  -0.000001   0.000000   0.000000   0.000000   0.000000
    46  H    0.000000   0.000000   0.000000   0.000000   0.000000   0.000000
    47  H    0.000000   0.000000   0.000000   0.000000   0.000000   0.000000
    48  O    0.000000   0.000000   0.000000   0.000000   0.000000   0.000000
    49  H    0.000000   0.000000   0.000000   0.000000   0.000000   0.000000
    50  H    0.000000   0.000000   0.000000   0.000000   0.000000   0.000000
              31         32         33         34         35         36
     1  C    0.000035  -0.000007   0.000068  -0.000001   0.000029   0.005621
     2  H    0.000000   0.000000  -0.000001   0.000000   0.000000   0.000001
     3  H    0.000000   0.000000   0.000000   0.000000   0.000000  -0.000035
     4  C   -0.000022   0.000002  -0.002085   0.000025   0.000040  -0.007594
     5  H    0.000000   0.000000   0.000000   0.000000   0.000000   0.000171
     6  C    0.000616   0.000021   0.004656  -0.000358  -0.002584   0.000344
     7  H   -0.000002   0.000000  -0.000160   0.000000  -0.000017  -0.000006
     8  O   -0.000256   0.000025  -0.005701   0.000131   0.002190   0.000011
     9  O    0.000234   0.000004  -0.117405   0.001224   0.020451   0.000005
    10  H    0.000001   0.000000   0.005095  -0.000232  -0.001651   0.000001
    11  H   -0.000003   0.000000   0.057208  -0.001454   0.001607   0.000000
    12  O   -0.000003   0.000000  -0.000180   0.000011   0.000124  -0.000008
    13  H    0.000000   0.000000  -0.000001   0.000000   0.000000   0.000005
    14  H   -0.000001   0.000000   0.000010   0.000000  -0.000044  -0.000001
    15  O    0.000000   0.000000   0.000000   0.000000   0.000000  -0.088556
    16  H    0.000000   0.000000   0.000000   0.000000   0.000000   0.002750
    17  H    0.000000   0.000000   0.000000   0.000000   0.000000   0.031549
    18  O    0.000000   0.000000  -0.000004   0.000000   0.000000  -0.000475
    19  H    0.000000   0.000000   0.000000   0.000000   0.000000  -0.000027
    20  H    0.000000   0.000000   0.000000   0.000000   0.000000  -0.000069
    21  O   -0.010134  -0.000399  -0.005434   0.000065   0.000329   0.000000
    22  H    0.002902   0.000134   0.000177  -0.000001  -0.000017   0.000000
    23  H    0.000686  -0.000329   0.000193   0.000000  -0.000002   0.000000
    24  O    0.000000   0.000000   0.000000   0.000000   0.000000  -0.088016
    25  H    0.000000   0.000000   0.000000   0.000000   0.000000  -0.000023
    26  H    0.000000   0.000000   0.000000   0.000000   0.000000  -0.000060
    27  O    0.000001   0.000000   0.000325  -0.000040  -0.000198   0.000000
    28  H    0.000000   0.000000   0.000188   0.000002  -0.000012   0.000000
    29  H    0.000001   0.000000   0.002868  -0.000007  -0.000130   0.000000
    30  O    0.180970   0.207998   0.000163  -0.000003   0.000256   0.000000
    31  H    0.213207  -0.007667   0.000072   0.000000   0.000036   0.000000
    32  H   -0.007667   0.174314  -0.000008   0.000000  -0.000001   0.000000
    33  O    0.000072  -0.000008   9.012286   0.212691   0.123877   0.000000
    34  H    0.000000   0.000000   0.212691   0.145392  -0.003636   0.000000
    35  H    0.000036  -0.000001   0.123877  -0.003636   0.237608   0.000000
    36  O    0.000000   0.000000   0.000000   0.000000   0.000000   8.987886
    37  H    0.000000   0.000000   0.000000   0.000000   0.000000   0.215946
    38  H    0.000000   0.000000   0.000000   0.000000   0.000000   0.139879
    39  O    0.004306  -0.000405  -0.090135   0.000708   0.023091   0.000000
    40  H   -0.000357  -0.000007   0.000324   0.000006   0.000396   0.000000
    41  H    0.004523  -0.000139   0.004648  -0.000071   0.003299   0.000000
    42  O    0.000000   0.000000  -0.000002   0.000000   0.000001   0.000000
    43  H    0.000000   0.000000   0.000000   0.000000   0.000000   0.000000
    44  H    0.000000   0.000000   0.000000   0.000000   0.000000   0.000000
    45  O    0.000000   0.000000   0.000000   0.000000   0.000000  -0.000040
    46  H    0.000000   0.000000   0.000000   0.000000   0.000000   0.000003
    47  H    0.000000   0.000000   0.000000   0.000000   0.000000   0.000000
    48  O    0.000000   0.000000   0.000000   0.000000   0.000000   0.000110
    49  H    0.000000   0.000000   0.000000   0.000000   0.000000   0.000027
    50  H    0.000000   0.000000   0.000000   0.000000   0.000000  -0.000002
              37         38         39         40         41         42
     1  C   -0.000212   0.000411  -0.000334   0.000048  -0.000026   0.002730
     2  H    0.000000   0.000000   0.000017   0.000000   0.000000  -0.000676
     3  H    0.000000   0.000000   0.000000   0.000000   0.000000  -0.000001
     4  C    0.000836  -0.000692   0.001505   0.000171  -0.000446  -0.001201
     5  H   -0.000014  -0.000007   0.000001   0.000000   0.000000   0.000000
     6  C   -0.000544   0.000072   0.000117   0.000351   0.000787  -0.000980
     7  H    0.000000   0.000000   0.000120   0.000000  -0.000007  -0.000001
     8  O    0.000000  -0.000001  -0.004263  -0.000607  -0.000301  -0.000802
     9  O    0.000000   0.000000  -0.011793   0.000193   0.001062  -0.000010
    10  H    0.000000   0.000000   0.002129  -0.000055  -0.000137  -0.000005
    11  H    0.000000   0.000000   0.001285  -0.000113  -0.000422   0.000000
    12  O    0.000000   0.000000  -0.000761   0.000220   0.000017  -0.102055
    13  H    0.000000   0.000000   0.000002   0.000000   0.000000   0.005612
    14  H    0.000000   0.000000   0.000437  -0.000046  -0.000023   0.003730
    15  O    0.003166   0.009278   0.000001   0.000000   0.000000   0.000152
    16  H    0.000026  -0.000240   0.000000   0.000000   0.000000  -0.000001
    17  H    0.000219  -0.001525   0.000000   0.000000   0.000000   0.000000
    18  O    0.000013  -0.000001  -0.000004   0.000000   0.000000  -0.002561
    19  H    0.000000   0.000000   0.000000   0.000000   0.000000   0.000170
    20  H   -0.000006  -0.000005   0.000000   0.000000   0.000000   0.000016
    21  O    0.000000   0.000000  -0.053447   0.000341  -0.005302   0.000010
    22  H    0.000000   0.000000  -0.002471   0.000009   0.004689   0.000000
    23  H    0.000000   0.000000  -0.001189   0.000064   0.000587   0.000000
    24  O   -0.000550   0.048192   0.000000   0.000000   0.000000   0.000000
    25  H   -0.000042  -0.002383   0.000000   0.000000   0.000000   0.000000
    26  H    0.000130  -0.003415   0.000000   0.000000   0.000000   0.000000
    27  O    0.000000   0.000000  -0.000455   0.000004   0.000069   0.000000
    28  H    0.000000   0.000000   0.000036   0.000000  -0.000007   0.000000
    29  H    0.000000   0.000000  -0.000118  -0.000003  -0.000022   0.000000
    30  O    0.000000   0.000000  -0.013328   0.000011   0.008171   0.000001
    31  H    0.000000   0.000000   0.004306  -0.000357   0.004523   0.000000
    32  H    0.000000   0.000000  -0.000405  -0.000007  -0.000139   0.000000
    33  O    0.000000   0.000000  -0.090135   0.000324   0.004648  -0.000002
    34  H    0.000000   0.000000   0.000708   0.000006  -0.000071   0.000000
    35  H    0.000000   0.000000   0.023091   0.000396   0.003299   0.000001
    36  O    0.215946   0.139879   0.000000   0.000000   0.000000   0.000000
    37  H    0.181896  -0.002624   0.000000   0.000000   0.000000   0.000000
    38  H   -0.002624   0.224951   0.000000   0.000000   0.000000   0.000000
    39  O    0.000000   0.000000   9.134571   0.184007   0.117418  -0.000007
    40  H    0.000000   0.000000   0.184007   0.164750  -0.002419   0.000004
    41  H    0.000000   0.000000   0.117418  -0.002419   0.229565  -0.000001
    42  O    0.000000   0.000000  -0.000007   0.000004  -0.000001   8.983181
    43  H    0.000000   0.000000   0.000000   0.000000   0.000000   0.213212
    44  H    0.000000   0.000000  -0.000006   0.000001   0.000000   0.142230
    45  O    0.000000   0.000000  -0.000001   0.000000   0.000000  -0.013852
    46  H    0.000000   0.000000   0.000000   0.000000   0.000000   0.000181
    47  H    0.000000   0.000000   0.000000   0.000000   0.000000  -0.000124
    48  O   -0.000006   0.000001   0.000000   0.000000   0.000000   0.000000
    49  H   -0.000002   0.000000   0.000000   0.000000   0.000000   0.000000
    50  H    0.000000   0.000000   0.000000   0.000000   0.000000   0.000000
              43         44         45         46         47         48
     1  C    0.000053   0.000869   0.002802   0.001296  -0.000038  -0.000008
     2  H    0.000028  -0.000043  -0.000013  -0.000005   0.000000   0.000000
     3  H    0.000000  -0.000003  -0.000003   0.000000   0.000000  -0.000065
     4  C    0.000022  -0.002026  -0.000103  -0.000525  -0.000040   0.000142
     5  H    0.000000   0.000000   0.000000   0.000000   0.000000  -0.000019
     6  C    0.000254   0.001771  -0.001817  -0.000166   0.000073   0.001196
     7  H    0.000000   0.000000   0.000000   0.000000   0.000000   0.000000
     8  O    0.000001  -0.000462   0.000041  -0.000046  -0.000001  -0.000001
     9  O    0.000000   0.000000  -0.000001  -0.000001   0.000000   0.000000
    10  H    0.000000   0.000002  -0.000001   0.000000   0.000000   0.000000
    11  H    0.000000   0.000000   0.000000   0.000000   0.000000   0.000000
    12  O    0.001869   0.038883  -0.004977   0.000789   0.000176   0.000000
    13  H   -0.000488  -0.002900   0.004177   0.002356  -0.000070   0.000000
    14  H   -0.000027  -0.000257   0.000082  -0.000055  -0.000001   0.000000
    15  O    0.000002   0.000047  -0.006860  -0.000720   0.000093  -0.000012
    16  H    0.000000   0.000000   0.000049   0.000042  -0.000001   0.000001
    17  H    0.000000   0.000000  -0.000031   0.000029   0.000000  -0.000004
    18  O    0.000726   0.001297  -0.028525   0.026878   0.000491   0.000002
    19  H   -0.000075  -0.000008  -0.001602  -0.005944   0.000053   0.000000
    20  H    0.000004  -0.000016   0.001805   0.000730  -0.000020   0.000000
    21  O    0.000000  -0.000003   0.000000   0.000000   0.000000   0.000000
    22  H    0.000000   0.000000   0.000000   0.000000   0.000000   0.000000
    23  H    0.000000   0.000000   0.000000   0.000000   0.000000   0.000000
    24  O    0.000000   0.000000   0.000000   0.000002   0.000000   0.000000
    25  H    0.000000   0.000000   0.000000   0.000000   0.000000   0.000000
    26  H    0.000000   0.000000  -0.000001   0.000000   0.000000   0.000000
    27  O    0.000000   0.000000   0.000000   0.000000   0.000000   0.000000
    28  H    0.000000   0.000000   0.000000   0.000000   0.000000   0.000000
    29  H    0.000000   0.000000   0.000000   0.000000   0.000000   0.000000
    30  O    0.000000   0.000000   0.000000   0.000000   0.000000   0.000000
    31  H    0.000000   0.000000   0.000000   0.000000   0.000000   0.000000
    32  H    0.000000   0.000000   0.000000   0.000000   0.000000   0.000000
    33  O    0.000000   0.000000   0.000000   0.000000   0.000000   0.000000
    34  H    0.000000   0.000000   0.000000   0.000000   0.000000   0.000000
    35  H    0.000000   0.000000   0.000000   0.000000   0.000000   0.000000
    36  O    0.000000   0.000000  -0.000040   0.000003   0.000000   0.000110
    37  H    0.000000   0.000000   0.000000   0.000000   0.000000  -0.000006
    38  H    0.000000   0.000000   0.000000   0.000000   0.000000   0.000001
    39  O    0.000000  -0.000006  -0.000001   0.000000   0.000000   0.000000
    40  H    0.000000   0.000001   0.000000   0.000000   0.000000   0.000000
    41  H    0.000000   0.000000   0.000000   0.000000   0.000000   0.000000
    42  O    0.213212   0.142230  -0.013852   0.000181  -0.000124   0.000000
    43  H    0.236566  -0.004773  -0.000096   0.000010   0.000010   0.000000
    44  H   -0.004773   0.184769   0.000363   0.000054   0.000008   0.000000
    45  O   -0.000096   0.000363   8.799958   0.163818   0.243630   0.000000
    46  H    0.000010   0.000054   0.163818   0.234361  -0.012190   0.000000
    47  H    0.000010   0.000008   0.243630  -0.012190   0.194966   0.000000
    48  O    0.000000   0.000000   0.000000   0.000000   0.000000   8.706668
    49  H    0.000000   0.000000   0.000000   0.000000   0.000000   0.220144
    50  H    0.000000   0.000000   0.000000   0.000000   0.000000   0.214494
              49         50
     1  C   -0.000115  -0.000039
     2  H    0.000000   0.000000
     3  H    0.000000   0.000000
     4  C    0.000173   0.000026
     5  H    0.000000   0.000000
     6  C   -0.000015  -0.000015
     7  H    0.000000   0.000000
     8  O    0.000000   0.000000
     9  O    0.000000   0.000000
    10  H    0.000000   0.000000
    11  H    0.000000   0.000000
    12  O    0.000000   0.000000
    13  H    0.000000   0.000000
    14  H    0.000000   0.000000
    15  O   -0.000003   0.000000
    16  H    0.000000   0.000000
    17  H    0.000000   0.000000
    18  O    0.000000   0.000000
    19  H    0.000000   0.000000
    20  H    0.000000   0.000000
    21  O    0.000000   0.000000
    22  H    0.000000   0.000000
    23  H    0.000000   0.000000
    24  O    0.000000   0.000000
    25  H    0.000000   0.000000
    26  H    0.000000   0.000000
    27  O    0.000000   0.000000
    28  H    0.000000   0.000000
    29  H    0.000000   0.000000
    30  O    0.000000   0.000000
    31  H    0.000000   0.000000
    32  H    0.000000   0.000000
    33  O    0.000000   0.000000
    34  H    0.000000   0.000000
    35  H    0.000000   0.000000
    36  O    0.000027  -0.000002
    37  H   -0.000002   0.000000
    38  H    0.000000   0.000000
    39  O    0.000000   0.000000
    40  H    0.000000   0.000000
    41  H    0.000000   0.000000
    42  O    0.000000   0.000000
    43  H    0.000000   0.000000
    44  H    0.000000   0.000000
    45  O    0.000000   0.000000
    46  H    0.000000   0.000000
    47  H    0.000000   0.000000
    48  O    0.220144   0.214494
    49  H    0.214682  -0.008496
    50  H   -0.008496   0.223208
 Mulliken charges:
               1
     1  C   -0.427753
     2  H    0.277024
     3  H    0.240184
     4  C   -0.074959
     5  H    0.223680
     6  C    0.039132
     7  H    0.237079
     8  O   -0.521167
     9  O   -1.217898
    10  H    0.517654
    11  H    0.621385
    12  O   -1.154113
    13  H    0.594862
    14  H    0.593768
    15  O   -1.260806
    16  H    0.601375
    17  H    0.633576
    18  O   -1.281209
    19  H    0.626867
    20  H    0.634272
    21  O   -1.155840
    22  H    0.574540
    23  H    0.678816
    24  O   -1.134750
    25  H    0.658806
    26  H    0.540499
    27  O   -1.249098
    28  H    0.568417
    29  H    0.637883
    30  O   -1.251985
    31  H    0.610855
    32  H    0.626466
    33  O   -1.203732
    34  H    0.645549
    35  H    0.594957
    36  O   -1.199396
    37  H    0.601767
    38  H    0.588109
    39  O   -1.291033
    40  H    0.652708
    41  H    0.634489
    42  O   -1.228955
    43  H    0.552705
    44  H    0.640200
    45  O   -1.158802
    46  H    0.589103
    47  H    0.572983
    48  O   -1.142644
    49  H    0.573606
    50  H    0.570824
 Sum of Mulliken charges =   0.00000
 Mulliken charges with hydrogens summed into heavy atoms:
               1
     1  C    0.089454
     4  C    0.148721
     6  C    0.276211
     8  O   -0.521167
     9  O   -0.078859
    12  O    0.034517
    15  O   -0.025855
    18  O   -0.020071
    21  O    0.097517
    24  O    0.064555
    27  O   -0.042798
    30  O   -0.014664
    33  O    0.036774
    36  O   -0.009520
    39  O   -0.003836
    42  O   -0.036050
    45  O    0.003284
    48  O    0.001785
 Electronic spatial extent (au):  <R**2>=          11967.8776
 Charge=              0.0000 electrons
 Dipole moment (field-independent basis, Debye):
    X=             11.6899    Y=             -7.8464    Z=              1.7677  Tot=             14.1896
 Quadrupole moment (field-independent basis, Debye-Ang):
   XX=            -43.1671   YY=           -165.2988   ZZ=           -140.3708
   XY=              9.1457   XZ=             15.3387   YZ=             13.0673
 Traceless Quadrupole moment (field-independent basis, Debye-Ang):
   XX=             73.1118   YY=            -49.0199   ZZ=            -24.0919
   XY=              9.1457   XZ=             15.3387   YZ=             13.0673
 Octapole moment (field-independent basis, Debye-Ang**2):
  XXX=            152.6599  YYY=           -164.5502  ZZZ=            -80.4299  XYY=            167.1669
  XXY=            -88.5600  XXZ=             79.7357  XZZ=            116.0006  YZZ=              3.2215
  YYZ=             19.3128  XYZ=            130.3688
 Hexadecapole moment (field-independent basis, Debye-Ang**3):
 XXXX=          -4622.3384 YYYY=          -5157.1300 ZZZZ=          -2767.7687 XXXY=             13.5655
 XXXZ=            902.7794 YYYX=            277.2268 YYYZ=            350.3892 ZZZX=            666.1583
 ZZZY=            223.9960 XXYY=          -1008.9574 XXZZ=          -1560.9314 YYZZ=          -1122.2679
 XXYZ=           -140.7841 YYXZ=           -237.4285 ZZXY=           -190.8139
 N-N= 1.127005941495D+03 E-N=-6.220405828515D+03  KE= 1.249513143319D+03
 Leave Link  601 at Fri Sep 14 17:17:54 2018, MaxMem=    33554432 cpu:        11.8
 (Enter /usr/local/pacerepov1/gaussian/G09D01LINDA/g09/l9999.exe)

 Test job not archived.
 1\1\GINC-IW-K41-38-R\SP\RLC-wPBE TD-FC\6-31+G(d)\C3H32O15\ROOT\14-Sep-
 2018\0\\#p td=(nstates=15)/6-31+g(d) lc-wpbe charge\\Acroleina in Wate
 r\\0,1\C,0,0.485154,0.480443,-1.430142\H,0,1.461403,0.187773,-1.055732
 \H,0,0.429244,0.878853,-2.437062\C,0,-0.605127,0.346563,-0.658432\H,0,
 -1.591686,0.632893,-1.012412\C,0,-0.508516,-0.199107,0.712798\H,0,-1.4
 58487,-0.272107,1.272438\O,0,0.544883,-0.561317,1.236519\O,0,-0.837787
 ,-0.443371,3.401688\H,0,-0.272467,-0.269111,2.595418\H,0,-0.248557,-0.
 599111,4.194529\O,0,2.874433,1.141149,0.927618\H,0,2.657953,2.039679,0
 .545678\H,0,2.030553,0.691079,1.219708\O,0,-0.255347,3.828749,-0.79679
 2\H,0,0.268303,4.646629,-1.035312\H,0,-1.202607,3.940079,-1.097382\O,0
 ,2.026243,3.158999,-0.229522\H,0,2.612073,3.509899,-0.960052\H,0,1.066
 963,3.267299,-0.490572\O,0,0.679743,-3.517911,2.480788\H,0,0.083313,-2
 .946701,1.916828\H,0,0.160623,-4.297501,2.831138\O,0,-2.901687,4.90082
 9,1.050908\H,0,-3.860327,4.64199,1.169698\H,0,-2.315287,4.12789,1.2933
 48\O,0,-2.818987,-1.631861,3.226718\H,0,-2.803537,-2.297461,3.972908\H
 ,0,-1.968157,-1.106421,3.231138\O,0,2.276103,-4.872271,1.639578\H,0,1.
 657833,-4.155001,1.960998\H,0,2.586693,-5.417951,2.417918\O,0,0.580763
 ,-0.931401,5.192958\H,0,1.219763,-0.392531,5.741879\H,0,1.089273,-1.46
 2131,4.514909\O,0,-2.576467,4.508019,-1.326792\H,0,-3.465617,4.203599,
 -1.668532\H,0,-2.658687,4.760729,-0.362732\O,0,2.036553,-2.252261,3.89
 1768\H,0,2.899023,-1.991781,3.457768\H,0,1.532233,-2.869001,3.287348\O
 ,0,5.060143,1.327969,0.318298\H,0,5.210923,1.358009,-0.669832\H,0,4.10
 8913,1.080699,0.502908\O,0,3.658923,4.54747,1.040248\H,0,2.878523,4.00
 355,0.731738\H,0,3.904823,5.209179,0.331928\O,0,-2.477637,1.690409,-5.
 782881\H,0,-2.413187,2.471589,-5.161841\H,0,-2.525927,2.017939,-6.7265
 21\\Version=EM64L-G09RevD.01\State=1-A\HF=-1758.9889704\RMSD=3.464e-09
 \PG=C01 [X(C3H32O15)]\\@


 HE THAT FOLLOWS NATURE IS NEVER LOST.

                             -- BACON
 Job cpu time:       0 days  2 hours 58 minutes 32.8 seconds.
 File lengths (MBytes):  RWF=    792 Int=      0 D2E=      0 Chk=     96 Scr=      2
 Normal termination of Gaussian 09 at Fri Sep 14 17:17:57 2018.
