 Entering Gaussian System, Link 0=g09
 Input=Acroleina_water_15_53c.gjf
 Output=Acroleina_water_15_53c.log
 Initial command:
 /usr/local/pacerepov1/gaussian/G09D01LINDA/g09/l1.exe /nv/hp18/holiveira7/scratch/22411941/Gau-21462.inp -scrdir=/nv/hp18/holiveira7/scratch/22411941/
 Entering Link 1 = /usr/local/pacerepov1/gaussian/G09D01LINDA/g09/l1.exe PID=     21463.
  
 Copyright (c) 1988,1990,1992,1993,1995,1998,2003,2009,2013,
            Gaussian, Inc.  All Rights Reserved.
  
 This is part of the Gaussian(R) 09 program.  It is based on
 the Gaussian(R) 03 system (copyright 2003, Gaussian, Inc.),
 the Gaussian(R) 98 system (copyright 1998, Gaussian, Inc.),
 the Gaussian(R) 94 system (copyright 1995, Gaussian, Inc.),
 the Gaussian 92(TM) system (copyright 1992, Gaussian, Inc.),
 the Gaussian 90(TM) system (copyright 1990, Gaussian, Inc.),
 the Gaussian 88(TM) system (copyright 1988, Gaussian, Inc.),
 the Gaussian 86(TM) system (copyright 1986, Carnegie Mellon
 University), and the Gaussian 82(TM) system (copyright 1983,
 Carnegie Mellon University). Gaussian is a federally registered
 trademark of Gaussian, Inc.
  
 This software contains proprietary and confidential information,
 including trade secrets, belonging to Gaussian, Inc.
  
 This software is provided under written license and may be
 used, copied, transmitted, or stored only in accord with that
 written license.
  
 The following legend is applicable only to US Government
 contracts under FAR:
  
                    RESTRICTED RIGHTS LEGEND
  
 Use, reproduction and disclosure by the US Government is
 subject to restrictions as set forth in subparagraphs (a)
 and (c) of the Commercial Computer Software - Restricted
 Rights clause in FAR 52.227-19.
  
 Gaussian, Inc.
 340 Quinnipiac St., Bldg. 40, Wallingford CT 06492
  
  
 ---------------------------------------------------------------
 Warning -- This program may not be used in any manner that
 competes with the business of Gaussian, Inc. or will provide
 assistance to any competitor of Gaussian, Inc.  The licensee
 of this program is prohibited from giving any competitor of
 Gaussian, Inc. access to this program.  By using this program,
 the user acknowledges that Gaussian, Inc. is engaged in the
 business of creating and licensing software in the field of
 computational chemistry and represents and warrants to the
 licensee that it is not a competitor of Gaussian, Inc. and that
 it will not use this program in any manner prohibited above.
 ---------------------------------------------------------------
  

 Cite this work as:
 Gaussian 09, Revision D.01,
 M. J. Frisch, G. W. Trucks, H. B. Schlegel, G. E. Scuseria, 
 M. A. Robb, J. R. Cheeseman, G. Scalmani, V. Barone, B. Mennucci, 
 G. A. Petersson, H. Nakatsuji, M. Caricato, X. Li, H. P. Hratchian, 
 A. F. Izmaylov, J. Bloino, G. Zheng, J. L. Sonnenberg, M. Hada, 
 M. Ehara, K. Toyota, R. Fukuda, J. Hasegawa, M. Ishida, T. Nakajima, 
 Y. Honda, O. Kitao, H. Nakai, T. Vreven, J. A. Montgomery, Jr., 
 J. E. Peralta, F. Ogliaro, M. Bearpark, J. J. Heyd, E. Brothers, 
 K. N. Kudin, V. N. Staroverov, T. Keith, R. Kobayashi, J. Normand, 
 K. Raghavachari, A. Rendell, J. C. Burant, S. S. Iyengar, J. Tomasi, 
 M. Cossi, N. Rega, J. M. Millam, M. Klene, J. E. Knox, J. B. Cross, 
 V. Bakken, C. Adamo, J. Jaramillo, R. Gomperts, R. E. Stratmann, 
 O. Yazyev, A. J. Austin, R. Cammi, C. Pomelli, J. W. Ochterski, 
 R. L. Martin, K. Morokuma, V. G. Zakrzewski, G. A. Voth, 
 P. Salvador, J. J. Dannenberg, S. Dapprich, A. D. Daniels, 
 O. Farkas, J. B. Foresman, J. V. Ortiz, J. Cioslowski, 
 and D. J. Fox, Gaussian, Inc., Wallingford CT, 2013.
 
 ******************************************
 Gaussian 09:  EM64L-G09RevD.01 24-Apr-2013
                14-Sep-2018 
 ******************************************
 %chk=Acrolina_Din_53.chk
 %nprocshared=10
 Will use up to   10 processors via shared memory.
 -------------------------------------------
 #p td=(nstates=15)/6-31+g(d) lc-wpbe charge
 -------------------------------------------
 1/18=10,28=-2,38=1,125=101/1;
 2/12=2,17=6,18=5,40=1/2;
 3/5=1,6=6,7=11,11=9,16=1,25=1,30=1,74=-41/1,2,8,3;
 4//1;
 5/5=2,38=5/2;
 8/6=1,10=2,108=15/1;
 9/41=15,42=1,70=2/14;
 6/7=2,8=2,9=2,10=2/1;
 99/5=1,9=1/99;
 Leave Link    1 at Fri Sep 14 17:19:25 2018, MaxMem=           0 cpu:         6.5
 (Enter /usr/local/pacerepov1/gaussian/G09D01LINDA/g09/l101.exe)
 ------------------
 Acroleina in Water
 ------------------
 Symbolic Z-matrix:
 Charge =  0 Multiplicity = 1
 C                     0.48515   0.48044  -1.43014 
 H                     1.4614    0.18777  -1.05573 
 H                     0.42924   0.87885  -2.43706 
 C                    -0.60513   0.34656  -0.65843 
 H                    -1.59169   0.63289  -1.01241 
 C                    -0.50852  -0.19911   0.7128 
 H                    -1.45849  -0.27211   1.27244 
 O                     0.54488  -0.56132   1.23652 
 O                    -1.2085   -1.7824    3.2776 
 H                    -0.80295  -1.28362   2.5116 
 H                    -0.70873  -1.56806   4.11685 
 O                    -1.01962   3.56264  -0.60241 
 H                    -0.75756   2.85089  -1.25415 
 H                    -2.01678   3.62609  -0.56129 
 O                     2.19771   2.09308   1.7987 
 H                     1.81821   2.65034   1.06011 
 H                     1.52849   2.01931   2.53811 
 O                     2.5752   -1.12174  -4.07737 
 H                     2.13317  -0.58044  -4.79269 
 H                     3.2421   -0.55439  -3.59427 
 O                     4.50681   1.45962   1.23971 
 H                     4.60957   1.52163   0.24692 
 H                     3.54897   1.60848   1.48555 
 O                     0.24927  -3.8243    3.50539 
 H                    -0.45307  -3.16076   3.24753 
 H                    -0.17118  -4.5717    4.01977 
 O                     3.95445  -1.39473   3.75728 
 H                     4.33204  -0.53191   4.09343 
 H                     4.25117  -1.54332   2.81392 
 O                    -3.52383   3.82766  -0.53629 
 H                    -4.44653   3.5029   -0.74413 
 H                    -3.53664   4.34117   0.3217 
 O                     1.18392   3.83669   0.294 
 H                     1.65731   4.26847  -0.47377 
 H                     0.19789   3.85014   0.1277 
 O                     4.35365  -0.23378  -2.84997 
 H                     4.99497  -0.24183  -3.61722 
 H                     4.54387  -1.00967  -2.24845 
 O                    -3.70501  -2.30403   3.33396 
 H                    -3.69953  -2.95641   4.09186 
 H                    -2.77468  -1.97605   3.16979 
 O                     1.33524  -0.06437  -5.74502 
 H                     1.69223   0.48668  -6.49931 
 H                     0.35275   0.0963   -5.65082 
 O                    -0.06354  -1.52661   5.24306 
 H                     0.20369  -0.71875   5.76838 
 H                     0.75062  -1.95014   4.84585 
 O                     4.77842   1.39476  -1.25005 
 H                     4.61216   2.30375  -1.63239 
 H                     4.65256   0.70507  -1.9632 
 
 NAtoms=     50 NQM=       50 NQMF=       0 NMMI=      0 NMMIF=      0
                NMic=       0 NMicF=      0.
                    Isotopes and Nuclear Properties:
 (Nuclear quadrupole moments (NQMom) in fm**2, nuclear magnetic moments (NMagM)
  in nuclear magnetons)

  Atom         1           2           3           4           5           6           7           8           9          10
 IAtWgt=          12           1           1          12           1          12           1          16          16           1
 AtmWgt=  12.0000000   1.0078250   1.0078250  12.0000000   1.0078250  12.0000000   1.0078250  15.9949146  15.9949146   1.0078250
 NucSpn=           0           1           1           0           1           0           1           0           0           1
 AtZEff=   0.0000000   0.0000000   0.0000000   0.0000000   0.0000000   0.0000000   0.0000000   0.0000000   0.0000000   0.0000000
 NQMom=    0.0000000   0.0000000   0.0000000   0.0000000   0.0000000   0.0000000   0.0000000   0.0000000   0.0000000   0.0000000
 NMagM=    0.0000000   2.7928460   2.7928460   0.0000000   2.7928460   0.0000000   2.7928460   0.0000000   0.0000000   2.7928460
 AtZNuc=   6.0000000   1.0000000   1.0000000   6.0000000   1.0000000   6.0000000   1.0000000   8.0000000   8.0000000   1.0000000

  Atom        11          12          13          14          15          16          17          18          19          20
 IAtWgt=           1          16           1           1          16           1           1          16           1           1
 AtmWgt=   1.0078250  15.9949146   1.0078250   1.0078250  15.9949146   1.0078250   1.0078250  15.9949146   1.0078250   1.0078250
 NucSpn=           1           0           1           1           0           1           1           0           1           1
 AtZEff=   0.0000000   0.0000000   0.0000000   0.0000000   0.0000000   0.0000000   0.0000000   0.0000000   0.0000000   0.0000000
 NQMom=    0.0000000   0.0000000   0.0000000   0.0000000   0.0000000   0.0000000   0.0000000   0.0000000   0.0000000   0.0000000
 NMagM=    2.7928460   0.0000000   2.7928460   2.7928460   0.0000000   2.7928460   2.7928460   0.0000000   2.7928460   2.7928460
 AtZNuc=   1.0000000   8.0000000   1.0000000   1.0000000   8.0000000   1.0000000   1.0000000   8.0000000   1.0000000   1.0000000

  Atom        21          22          23          24          25          26          27          28          29          30
 IAtWgt=          16           1           1          16           1           1          16           1           1          16
 AtmWgt=  15.9949146   1.0078250   1.0078250  15.9949146   1.0078250   1.0078250  15.9949146   1.0078250   1.0078250  15.9949146
 NucSpn=           0           1           1           0           1           1           0           1           1           0
 AtZEff=   0.0000000   0.0000000   0.0000000   0.0000000   0.0000000   0.0000000   0.0000000   0.0000000   0.0000000   0.0000000
 NQMom=    0.0000000   0.0000000   0.0000000   0.0000000   0.0000000   0.0000000   0.0000000   0.0000000   0.0000000   0.0000000
 NMagM=    0.0000000   2.7928460   2.7928460   0.0000000   2.7928460   2.7928460   0.0000000   2.7928460   2.7928460   0.0000000
 AtZNuc=   8.0000000   1.0000000   1.0000000   8.0000000   1.0000000   1.0000000   8.0000000   1.0000000   1.0000000   8.0000000

  Atom        31          32          33          34          35          36          37          38          39          40
 IAtWgt=           1           1          16           1           1          16           1           1          16           1
 AtmWgt=   1.0078250   1.0078250  15.9949146   1.0078250   1.0078250  15.9949146   1.0078250   1.0078250  15.9949146   1.0078250
 NucSpn=           1           1           0           1           1           0           1           1           0           1
 AtZEff=   0.0000000   0.0000000   0.0000000   0.0000000   0.0000000   0.0000000   0.0000000   0.0000000   0.0000000   0.0000000
 NQMom=    0.0000000   0.0000000   0.0000000   0.0000000   0.0000000   0.0000000   0.0000000   0.0000000   0.0000000   0.0000000
 NMagM=    2.7928460   2.7928460   0.0000000   2.7928460   2.7928460   0.0000000   2.7928460   2.7928460   0.0000000   2.7928460
 AtZNuc=   1.0000000   1.0000000   8.0000000   1.0000000   1.0000000   8.0000000   1.0000000   1.0000000   8.0000000   1.0000000

  Atom        41          42          43          44          45          46          47          48          49          50
 IAtWgt=           1          16           1           1          16           1           1          16           1           1
 AtmWgt=   1.0078250  15.9949146   1.0078250   1.0078250  15.9949146   1.0078250   1.0078250  15.9949146   1.0078250   1.0078250
 NucSpn=           1           0           1           1           0           1           1           0           1           1
 AtZEff=   0.0000000   0.0000000   0.0000000   0.0000000   0.0000000   0.0000000   0.0000000   0.0000000   0.0000000   0.0000000
 NQMom=    0.0000000   0.0000000   0.0000000   0.0000000   0.0000000   0.0000000   0.0000000   0.0000000   0.0000000   0.0000000
 NMagM=    2.7928460   0.0000000   2.7928460   2.7928460   0.0000000   2.7928460   2.7928460   0.0000000   2.7928460   2.7928460
 AtZNuc=   1.0000000   8.0000000   1.0000000   1.0000000   8.0000000   1.0000000   1.0000000   8.0000000   1.0000000   1.0000000
 Background charge distribution read from input stream:
 Point Charges:
 XYZ=    1.9215   -2.4255    4.3224 Q=   -0.8200 A=    0.0000 R=    0.0000 C=    0.0000
 XYZ=    2.8154   -2.1306    3.9846 Q=    0.4100 A=    0.0000 R=    0.0000 C=    0.0000
 XYZ=    1.5620   -3.1457    3.7290 Q=    0.4100 A=    0.0000 R=    0.0000 C=    0.0000
 XYZ=   -5.0753    1.0642   -4.9462 Q=   -0.8200 A=    0.0000 R=    0.0000 C=    0.0000
 XYZ=   -4.7230    0.4250   -4.2625 Q=    0.4100 A=    0.0000 R=    0.0000 C=    0.0000
 XYZ=   -4.3102    1.5047   -5.4160 Q=    0.4100 A=    0.0000 R=    0.0000 C=    0.0000
 XYZ=    3.9782   -3.1866   -3.3738 Q=   -0.8200 A=    0.0000 R=    0.0000 C=    0.0000
 XYZ=    4.6117   -2.8087   -2.6986 Q=    0.4100 A=    0.0000 R=    0.0000 C=    0.0000
 XYZ=    3.3633   -2.4659   -3.6939 Q=    0.4100 A=    0.0000 R=    0.0000 C=    0.0000
 XYZ=    5.2628   -2.2436   -1.4937 Q=   -0.8200 A=    0.0000 R=    0.0000 C=    0.0000
 XYZ=    6.1120   -1.8059   -1.1979 Q=    0.4100 A=    0.0000 R=    0.0000 C=    0.0000
 XYZ=    4.9691   -2.9030   -0.8016 Q=    0.4100 A=    0.0000 R=    0.0000 C=    0.0000
 XYZ=    5.4128   -2.1210    1.9801 Q=   -0.8200 A=    0.0000 R=    0.0000 C=    0.0000
 XYZ=    5.2944   -2.7445    1.2072 Q=    0.4100 A=    0.0000 R=    0.0000 C=    0.0000
 XYZ=    5.7456   -2.6321    2.7726 Q=    0.4100 A=    0.0000 R=    0.0000 C=    0.0000
 XYZ=   -2.5383    3.9678   -4.7136 Q=   -0.8200 A=    0.0000 R=    0.0000 C=    0.0000
 XYZ=   -1.6144    4.3346   -4.6044 Q=    0.4100 A=    0.0000 R=    0.0000 C=    0.0000
 XYZ=   -3.1968    4.5930   -4.2944 Q=    0.4100 A=    0.0000 R=    0.0000 C=    0.0000
 XYZ=   -0.3163    4.8539   -4.6510 Q=   -0.8200 A=    0.0000 R=    0.0000 C=    0.0000
 XYZ=   -0.0041    5.0843   -5.5727 Q=    0.4100 A=    0.0000 R=    0.0000 C=    0.0000
 XYZ=    0.0922    3.9861   -4.3680 Q=    0.4100 A=    0.0000 R=    0.0000 C=    0.0000
 XYZ=    5.1112   -3.7515    0.3382 Q=   -0.8200 A=    0.0000 R=    0.0000 C=    0.0000
 XYZ=    4.2845   -4.2472    0.6044 Q=    0.4100 A=    0.0000 R=    0.0000 C=    0.0000
 XYZ=    5.8082   -4.4028    0.0381 Q=    0.4100 A=    0.0000 R=    0.0000 C=    0.0000
 XYZ=    6.3699    0.0952    1.9305 Q=   -0.8200 A=    0.0000 R=    0.0000 C=    0.0000
 XYZ=    5.5986    0.7119    1.7728 Q=    0.4100 A=    0.0000 R=    0.0000 C=    0.0000
 XYZ=    6.0433   -0.8499    1.9454 Q=    0.4100 A=    0.0000 R=    0.0000 C=    0.0000
 XYZ=   -3.2013    2.0962   -5.9564 Q=   -0.8200 A=    0.0000 R=    0.0000 C=    0.0000
 XYZ=   -2.8213    2.9384   -5.5739 Q=    0.4100 A=    0.0000 R=    0.0000 C=    0.0000
 XYZ=   -3.6894    2.3056   -6.8038 Q=    0.4100 A=    0.0000 R=    0.0000 C=    0.0000
 XYZ=    3.3045   -5.2156    0.6958 Q=   -0.8200 A=    0.0000 R=    0.0000 C=    0.0000
 XYZ=    2.4104   -5.2319    1.1434 Q=    0.4100 A=    0.0000 R=    0.0000 C=    0.0000
 XYZ=    3.2937   -5.8307   -0.0926 Q=    0.4100 A=    0.0000 R=    0.0000 C=    0.0000
 XYZ=   -2.7803    5.9401   -1.8562 Q=   -0.8200 A=    0.0000 R=    0.0000 C=    0.0000
 XYZ=   -2.9878    5.1966   -1.2205 Q=    0.4100 A=    0.0000 R=    0.0000 C=    0.0000
 XYZ=   -2.9459    6.8183   -1.4075 Q=    0.4100 A=    0.0000 R=    0.0000 C=    0.0000
 XYZ=   -3.8826    4.6609    1.6109 Q=   -0.8200 A=    0.0000 R=    0.0000 C=    0.0000
 XYZ=   -4.8586    4.4688    1.7141 Q=    0.4100 A=    0.0000 R=    0.0000 C=    0.0000
 XYZ=   -3.3939    4.3510    2.4265 Q=    0.4100 A=    0.0000 R=    0.0000 C=    0.0000
 XYZ=    1.2882   -5.5931    2.0978 Q=   -0.8200 A=    0.0000 R=    0.0000 C=    0.0000
 XYZ=    0.5761   -4.9767    2.4343 Q=    0.4100 A=    0.0000 R=    0.0000 C=    0.0000
 XYZ=    1.7630   -6.0086    2.8736 Q=    0.4100 A=    0.0000 R=    0.0000 C=    0.0000
 XYZ=    6.8251    0.8224   -0.2960 Q=   -0.8200 A=    0.0000 R=    0.0000 C=    0.0000
 XYZ=    6.1096    1.3300   -0.7760 Q=    0.4100 A=    0.0000 R=    0.0000 C=    0.0000
 XYZ=    6.5772    0.7280    0.6681 Q=    0.4100 A=    0.0000 R=    0.0000 C=    0.0000
 XYZ=    5.5947    3.1938    2.5058 Q=   -0.8200 A=    0.0000 R=    0.0000 C=    0.0000
 XYZ=    4.8644    3.8724    2.5847 Q=    0.4100 A=    0.0000 R=    0.0000 C=    0.0000
 XYZ=    5.2744    2.4217    1.9570 Q=    0.4100 A=    0.0000 R=    0.0000 C=    0.0000
 XYZ=   -5.9482    3.2692   -0.7883 Q=   -0.8200 A=    0.0000 R=    0.0000 C=    0.0000
 XYZ=   -6.3901    4.0632   -0.3709 Q=    0.4100 A=    0.0000 R=    0.0000 C=    0.0000
 XYZ=   -6.4630    2.4428   -0.5597 Q=    0.4100 A=    0.0000 R=    0.0000 C=    0.0000
 XYZ=    7.1666   -1.3675   -0.6422 Q=   -0.8200 A=    0.0000 R=    0.0000 C=    0.0000
 XYZ=    6.8609   -0.4196   -0.5522 Q=    0.4100 A=    0.0000 R=    0.0000 C=    0.0000
 XYZ=    7.5197   -1.6886    0.2366 Q=    0.4100 A=    0.0000 R=    0.0000 C=    0.0000
 XYZ=   -1.7331   -3.1010    6.3551 Q=   -0.8200 A=    0.0000 R=    0.0000 C=    0.0000
 XYZ=   -1.1269   -2.4343    5.9214 Q=    0.4100 A=    0.0000 R=    0.0000 C=    0.0000
 XYZ=   -2.6144   -3.1069    5.8826 Q=    0.4100 A=    0.0000 R=    0.0000 C=    0.0000
 XYZ=    1.0826    0.1559    6.7775 Q=   -0.8200 A=    0.0000 R=    0.0000 C=    0.0000
 XYZ=    1.6955   -0.5776    7.0713 Q=    0.4100 A=    0.0000 R=    0.0000 C=    0.0000
 XYZ=    1.6059    0.8489    6.2815 Q=    0.4100 A=    0.0000 R=    0.0000 C=    0.0000
 XYZ=   -5.7388    4.2677   -2.7648 Q=   -0.8200 A=    0.0000 R=    0.0000 C=    0.0000
 XYZ=   -5.8109    3.8122   -1.8774 Q=    0.4100 A=    0.0000 R=    0.0000 C=    0.0000
 XYZ=   -6.3278    3.8036   -3.4263 Q=    0.4100 A=    0.0000 R=    0.0000 C=    0.0000
 XYZ=    2.3878    5.2873    1.9459 Q=   -0.8200 A=    0.0000 R=    0.0000 C=    0.0000
 XYZ=    2.1489    4.5877    1.2725 Q=    0.4100 A=    0.0000 R=    0.0000 C=    0.0000
 XYZ=    2.0304    6.1725    1.6481 Q=    0.4100 A=    0.0000 R=    0.0000 C=    0.0000
 XYZ=    2.1353   -3.2348    6.4930 Q=   -0.8200 A=    0.0000 R=    0.0000 C=    0.0000
 XYZ=    2.0138   -2.9020    5.5578 Q=    0.4100 A=    0.0000 R=    0.0000 C=    0.0000
 XYZ=    2.4243   -2.4792    7.0808 Q=    0.4100 A=    0.0000 R=    0.0000 C=    0.0000
 XYZ=    4.2629    3.9551   -2.1772 Q=   -0.8200 A=    0.0000 R=    0.0000 C=    0.0000
 XYZ=    5.1872    4.2488   -1.9332 Q=    0.4100 A=    0.0000 R=    0.0000 C=    0.0000
 XYZ=    4.2285    3.7393   -3.1531 Q=    0.4100 A=    0.0000 R=    0.0000 C=    0.0000
 XYZ=    2.4872    1.6906    5.8014 Q=   -0.8200 A=    0.0000 R=    0.0000 C=    0.0000
 XYZ=    2.9005    1.6475    6.7110 Q=    0.4100 A=    0.0000 R=    0.0000 C=    0.0000
 XYZ=    2.5415    2.6269    5.4546 Q=    0.4100 A=    0.0000 R=    0.0000 C=    0.0000
 XYZ=    3.2586   -1.8945   -7.0302 Q=   -0.8200 A=    0.0000 R=    0.0000 C=    0.0000
 XYZ=    3.4893   -2.7101   -6.4995 Q=    0.4100 A=    0.0000 R=    0.0000 C=    0.0000
 XYZ=    2.4084   -1.4996   -6.6819 Q=    0.4100 A=    0.0000 R=    0.0000 C=    0.0000
 XYZ=    4.5342    0.5386    5.1213 Q=   -0.8200 A=    0.0000 R=    0.0000 C=    0.0000
 XYZ=    4.7340   -0.0764    5.8842 Q=    0.4100 A=    0.0000 R=    0.0000 C=    0.0000
 XYZ=    3.6509    0.9822    5.2733 Q=    0.4100 A=    0.0000 R=    0.0000 C=    0.0000
 XYZ=   -3.9959    5.5790   -3.7919 Q=   -0.8200 A=    0.0000 R=    0.0000 C=    0.0000
 XYZ=   -3.4491    5.7720   -2.9771 Q=    0.4100 A=    0.0000 R=    0.0000 C=    0.0000
 XYZ=   -4.7691    4.9954   -3.5437 Q=    0.4100 A=    0.0000 R=    0.0000 C=    0.0000
 XYZ=    4.5346   -3.1794    5.3343 Q=   -0.8200 A=    0.0000 R=    0.0000 C=    0.0000
 XYZ=    4.3814   -2.4149    4.7080 Q=    0.4100 A=    0.0000 R=    0.0000 C=    0.0000
 XYZ=    3.6844   -3.3908    5.8164 Q=    0.4100 A=    0.0000 R=    0.0000 C=    0.0000
 XYZ=   -6.8598    2.5993   -4.5441 Q=   -0.8200 A=    0.0000 R=    0.0000 C=    0.0000
 XYZ=   -7.0962    2.9533   -5.4489 Q=    0.4100 A=    0.0000 R=    0.0000 C=    0.0000
 XYZ=   -6.1286    1.9227   -4.6315 Q=    0.4100 A=    0.0000 R=    0.0000 C=    0.0000
 XYZ=   -0.6543    6.5906   -2.8606 Q=   -0.8200 A=    0.0000 R=    0.0000 C=    0.0000
 XYZ=   -1.5450    6.2797   -2.5289 Q=    0.4100 A=    0.0000 R=    0.0000 C=    0.0000
 XYZ=   -0.3482    5.9941   -3.6026 Q=    0.4100 A=    0.0000 R=    0.0000 C=    0.0000
 XYZ=   -6.0127   -2.7132    2.6783 Q=   -0.8200 A=    0.0000 R=    0.0000 C=    0.0000
 XYZ=   -5.0179   -2.6184    2.7145 Q=    0.4100 A=    0.0000 R=    0.0000 C=    0.0000
 XYZ=   -6.2635   -3.6651    2.8550 Q=    0.4100 A=    0.0000 R=    0.0000 C=    0.0000
 XYZ=    2.7350    5.4164   -0.8746 Q=   -0.8200 A=    0.0000 R=    0.0000 C=    0.0000
 XYZ=    3.2771    6.1213   -0.4172 Q=    0.4100 A=    0.0000 R=    0.0000 C=    0.0000
 XYZ=    3.3465    4.7641   -1.3226 Q=    0.4100 A=    0.0000 R=    0.0000 C=    0.0000
 XYZ=   -2.2459    4.5288   -7.0948 Q=   -0.8200 A=    0.0000 R=    0.0000 C=    0.0000
 XYZ=   -2.3779    4.4201   -6.1095 Q=    0.4100 A=    0.0000 R=    0.0000 C=    0.0000
 XYZ=   -3.1038    4.8241   -7.5154 Q=    0.4100 A=    0.0000 R=    0.0000 C=    0.0000
 XYZ=    3.9107   -3.8255   -5.9417 Q=   -0.8200 A=    0.0000 R=    0.0000 C=    0.0000
 XYZ=    3.9224   -3.5241   -4.9882 Q=    0.4100 A=    0.0000 R=    0.0000 C=    0.0000
 XYZ=    4.7143   -4.3927   -6.1218 Q=    0.4100 A=    0.0000 R=    0.0000 C=    0.0000
 XYZ=    4.2054   -5.6225   -3.4855 Q=   -0.8200 A=    0.0000 R=    0.0000 C=    0.0000
 XYZ=    3.9995   -4.6773   -3.2320 Q=    0.4100 A=    0.0000 R=    0.0000 C=    0.0000
 XYZ=    3.7309   -5.8504   -4.3358 Q=    0.4100 A=    0.0000 R=    0.0000 C=    0.0000
 XYZ=    0.1890    5.6743    3.6005 Q=   -0.8200 A=    0.0000 R=    0.0000 C=    0.0000
 XYZ=   -0.1262    6.3932    2.9810 Q=    0.4100 A=    0.0000 R=    0.0000 C=    0.0000
 XYZ=    0.9681    5.1994    3.1910 Q=    0.4100 A=    0.0000 R=    0.0000 C=    0.0000
 XYZ=    4.2669   -5.9692    2.8084 Q=   -0.8200 A=    0.0000 R=    0.0000 C=    0.0000
 XYZ=    3.9856   -5.8712    1.8538 Q=    0.4100 A=    0.0000 R=    0.0000 C=    0.0000
 XYZ=    3.5036   -6.3283    3.3455 Q=    0.4100 A=    0.0000 R=    0.0000 C=    0.0000
 XYZ=    2.2638    4.6903   -5.0499 Q=   -0.8200 A=    0.0000 R=    0.0000 C=    0.0000
 XYZ=    3.1660    4.3078   -4.8505 Q=    0.4100 A=    0.0000 R=    0.0000 C=    0.0000
 XYZ=    2.2172    5.6293   -4.7094 Q=    0.4100 A=    0.0000 R=    0.0000 C=    0.0000
 XYZ=    2.1893    1.1131   -7.4339 Q=   -0.8200 A=    0.0000 R=    0.0000 C=    0.0000
 XYZ=    3.1786    1.0926   -7.5781 Q=    0.4100 A=    0.0000 R=    0.0000 C=    0.0000
 XYZ=    1.7241    0.8369   -8.2749 Q=    0.4100 A=    0.0000 R=    0.0000 C=    0.0000
 XYZ=    6.0218   -0.3011   -4.5681 Q=   -0.8200 A=    0.0000 R=    0.0000 C=    0.0000
 XYZ=    6.5691    0.4862   -4.8521 Q=    0.4100 A=    0.0000 R=    0.0000 C=    0.0000
 XYZ=    6.6280   -1.0594   -4.3284 Q=    0.4100 A=    0.0000 R=    0.0000 C=    0.0000
 XYZ=   -5.6585   -1.1572    4.7069 Q=   -0.8200 A=    0.0000 R=    0.0000 C=    0.0000
 XYZ=   -4.6921   -0.9209    4.8091 Q=    0.4100 A=    0.0000 R=    0.0000 C=    0.0000
 XYZ=   -5.7823   -1.7030    3.8782 Q=    0.4100 A=    0.0000 R=    0.0000 C=    0.0000
 XYZ=    5.5640   -4.0992    3.4814 Q=   -0.8200 A=    0.0000 R=    0.0000 C=    0.0000
 XYZ=    5.1518   -3.6769    4.2887 Q=    0.4100 A=    0.0000 R=    0.0000 C=    0.0000
 XYZ=    4.9978   -4.8669    3.1812 Q=    0.4100 A=    0.0000 R=    0.0000 C=    0.0000
 XYZ=   -7.6321    1.3469   -0.4608 Q=   -0.8200 A=    0.0000 R=    0.0000 C=    0.0000
 XYZ=   -7.8611    0.3844   -0.3149 Q=    0.4100 A=    0.0000 R=    0.0000 C=    0.0000
 XYZ=   -7.8830    1.6116   -1.3919 Q=    0.4100 A=    0.0000 R=    0.0000 C=    0.0000
 XYZ=    0.6070   -7.3744    0.7212 Q=   -0.8200 A=    0.0000 R=    0.0000 C=    0.0000
 XYZ=    0.7472   -6.5658    1.2928 Q=    0.4100 A=    0.0000 R=    0.0000 C=    0.0000
 XYZ=    1.2719   -7.3738   -0.0257 Q=    0.4100 A=    0.0000 R=    0.0000 C=    0.0000
 XYZ=   -5.8966    1.2205   -7.2207 Q=   -0.8200 A=    0.0000 R=    0.0000 C=    0.0000
 XYZ=   -6.2417    0.4214   -7.7130 Q=    0.4100 A=    0.0000 R=    0.0000 C=    0.0000
 XYZ=   -5.7484    0.9823   -6.2609 Q=    0.4100 A=    0.0000 R=    0.0000 C=    0.0000
 XYZ=    1.3755    3.5628   -6.9541 Q=   -0.8200 A=    0.0000 R=    0.0000 C=    0.0000
 XYZ=    1.6775    4.0864   -6.1575 Q=    0.4100 A=    0.0000 R=    0.0000 C=    0.0000
 XYZ=    1.9600    2.7591   -7.0658 Q=    0.4100 A=    0.0000 R=    0.0000 C=    0.0000
 XYZ=   -2.9295    7.1008    1.3755 Q=   -0.8200 A=    0.0000 R=    0.0000 C=    0.0000
 XYZ=   -3.2717    7.8248    1.9746 Q=    0.4100 A=    0.0000 R=    0.0000 C=    0.0000
 XYZ=   -3.4011    6.2442    1.5851 Q=    0.4100 A=    0.0000 R=    0.0000 C=    0.0000
 XYZ=    0.9529    6.9519   -1.2086 Q=   -0.8200 A=    0.0000 R=    0.0000 C=    0.0000
 XYZ=    1.6828    6.2740   -1.1201 Q=    0.4100 A=    0.0000 R=    0.0000 C=    0.0000
 XYZ=    0.3491    6.6949   -1.9631 Q=    0.4100 A=    0.0000 R=    0.0000 C=    0.0000
 XYZ=   -6.2892    3.9606    2.2706 Q=   -0.8200 A=    0.0000 R=    0.0000 C=    0.0000
 XYZ=   -6.7587    4.3841    1.4958 Q=    0.4100 A=    0.0000 R=    0.0000 C=    0.0000
 XYZ=   -6.7598    4.2039    3.1188 Q=    0.4100 A=    0.0000 R=    0.0000 C=    0.0000
 XYZ=    3.1312   -6.6523   -1.1943 Q=   -0.8200 A=    0.0000 R=    0.0000 C=    0.0000
 XYZ=    3.9596   -7.1362   -0.9120 Q=    0.4100 A=    0.0000 R=    0.0000 C=    0.0000
 XYZ=    3.2369   -6.3317   -2.1356 Q=    0.4100 A=    0.0000 R=    0.0000 C=    0.0000
 XYZ=    6.0213    2.3280    4.7984 Q=   -0.8200 A=    0.0000 R=    0.0000 C=    0.0000
 XYZ=    5.8197    2.8279    3.9561 Q=    0.4100 A=    0.0000 R=    0.0000 C=    0.0000
 XYZ=    5.3606    1.5860    4.9119 Q=    0.4100 A=    0.0000 R=    0.0000 C=    0.0000
 XYZ=   -0.9023   -5.8362    4.1650 Q=   -0.8200 A=    0.0000 R=    0.0000 C=    0.0000
 XYZ=   -1.3320   -6.1681    3.3252 Q=    0.4100 A=    0.0000 R=    0.0000 C=    0.0000
 XYZ=   -0.7548   -6.6033    4.7895 Q=    0.4100 A=    0.0000 R=    0.0000 C=    0.0000
 XYZ=    8.6800    0.0822    2.5320 Q=   -0.8200 A=    0.0000 R=    0.0000 C=    0.0000
 XYZ=    8.7991    0.4939    3.4356 Q=    0.4100 A=    0.0000 R=    0.0000 C=    0.0000
 XYZ=    7.7179    0.1378    2.2647 Q=    0.4100 A=    0.0000 R=    0.0000 C=    0.0000
 XYZ=    0.0568    2.0410    8.1942 Q=   -0.8200 A=    0.0000 R=    0.0000 C=    0.0000
 XYZ=    0.4170    1.3544    7.5626 Q=    0.4100 A=    0.0000 R=    0.0000 C=    0.0000
 XYZ=   -0.8252    1.7345    8.5521 Q=    0.4100 A=    0.0000 R=    0.0000 C=    0.0000
 XYZ=   -8.1367    2.2370    1.7692 Q=   -0.8200 A=    0.0000 R=    0.0000 C=    0.0000
 XYZ=   -7.3344    2.8281    1.8527 Q=    0.4100 A=    0.0000 R=    0.0000 C=    0.0000
 XYZ=   -8.0647    1.6936    0.9328 Q=    0.4100 A=    0.0000 R=    0.0000 C=    0.0000
 XYZ=    5.4481   -1.0290   -6.8122 Q=   -0.8200 A=    0.0000 R=    0.0000 C=    0.0000
 XYZ=    5.6511   -0.7649   -5.8692 Q=    0.4100 A=    0.0000 R=    0.0000 C=    0.0000
 XYZ=    4.4645   -1.1789   -6.9119 Q=    0.4100 A=    0.0000 R=    0.0000 C=    0.0000
 XYZ=    0.0840   -4.3996    6.9925 Q=   -0.8200 A=    0.0000 R=    0.0000 C=    0.0000
 XYZ=    0.9019   -3.8367    6.8734 Q=    0.4100 A=    0.0000 R=    0.0000 C=    0.0000
 XYZ=   -0.7143   -3.9044    6.6494 Q=    0.4100 A=    0.0000 R=    0.0000 C=    0.0000
 XYZ=    4.5908    4.3595   -4.5582 Q=   -0.8200 A=    0.0000 R=    0.0000 C=    0.0000
 XYZ=    5.2764    5.0837   -4.4843 Q=    0.4100 A=    0.0000 R=    0.0000 C=    0.0000
 XYZ=    4.8932    3.6813   -5.2280 Q=    0.4100 A=    0.0000 R=    0.0000 C=    0.0000
 XYZ=   -8.1827    2.2917   -2.5428 Q=   -0.8200 A=    0.0000 R=    0.0000 C=    0.0000
 XYZ=   -7.6384    2.5622   -3.3369 Q=    0.4100 A=    0.0000 R=    0.0000 C=    0.0000
 XYZ=   -9.1107    2.0630   -2.8370 Q=    0.4100 A=    0.0000 R=    0.0000 C=    0.0000
 XYZ=    8.1245    2.7249   -0.7446 Q=   -0.8200 A=    0.0000 R=    0.0000 C=    0.0000
 XYZ=    7.6712    1.8567   -0.5428 Q=    0.4100 A=    0.0000 R=    0.0000 C=    0.0000
 XYZ=    8.6553    3.0166    0.0511 Q=    0.4100 A=    0.0000 R=    0.0000 C=    0.0000
 XYZ=   -7.7825   -2.8729    1.2493 Q=   -0.8200 A=    0.0000 R=    0.0000 C=    0.0000
 XYZ=   -6.8916   -2.7567    1.6883 Q=    0.4100 A=    0.0000 R=    0.0000 C=    0.0000
 XYZ=   -8.0336   -3.8409    1.2559 Q=    0.4100 A=    0.0000 R=    0.0000 C=    0.0000
 XYZ=    0.9314    5.1847    5.7304 Q=   -0.8200 A=    0.0000 R=    0.0000 C=    0.0000
 XYZ=    0.4981    5.3811    4.8507 Q=    0.4100 A=    0.0000 R=    0.0000 C=    0.0000
 XYZ=    0.2435    4.8465    6.3726 Q=    0.4100 A=    0.0000 R=    0.0000 C=    0.0000
 XYZ=   -0.5450    7.3227    2.0990 Q=   -0.8200 A=    0.0000 R=    0.0000 C=    0.0000
 XYZ=   -0.7495    8.1016    2.6919 Q=    0.4100 A=    0.0000 R=    0.0000 C=    0.0000
 XYZ=   -1.3791    7.0332    1.6294 Q=    0.4100 A=    0.0000 R=    0.0000 C=    0.0000
 XYZ=   -3.8109   -3.7049    5.4174 Q=   -0.8200 A=    0.0000 R=    0.0000 C=    0.0000
 XYZ=   -4.2527   -3.7169    6.3144 Q=    0.4100 A=    0.0000 R=    0.0000 C=    0.0000
 XYZ=   -3.5597   -4.6372    5.1571 Q=    0.4100 A=    0.0000 R=    0.0000 C=    0.0000
 XYZ=    3.1078    4.1164    5.4423 Q=   -0.8200 A=    0.0000 R=    0.0000 C=    0.0000
 XYZ=    3.7693    4.5850    6.0279 Q=    0.4100 A=    0.0000 R=    0.0000 C=    0.0000
 XYZ=    2.2437    4.6198    5.4465 Q=    0.4100 A=    0.0000 R=    0.0000 C=    0.0000
 XYZ=    8.8131   -1.4178   -2.3617 Q=   -0.8200 A=    0.0000 R=    0.0000 C=    0.0000
 XYZ=    8.1700   -1.2553   -1.6132 Q=    0.4100 A=    0.0000 R=    0.0000 C=    0.0000
 XYZ=    9.6639   -1.7937   -1.9944 Q=    0.4100 A=    0.0000 R=    0.0000 C=    0.0000
 XYZ=    7.4770   -4.8059    2.3111 Q=   -0.8200 A=    0.0000 R=    0.0000 C=    0.0000
 XYZ=    6.7999   -4.3326    2.8746 Q=    0.4100 A=    0.0000 R=    0.0000 C=    0.0000
 XYZ=    7.1502   -4.8537    1.3672 Q=    0.4100 A=    0.0000 R=    0.0000 C=    0.0000
 XYZ=    4.2004    5.2142    3.4635 Q=   -0.8200 A=    0.0000 R=    0.0000 C=    0.0000
 XYZ=    3.8716    4.7856    4.3050 Q=    0.4100 A=    0.0000 R=    0.0000 C=    0.0000
 XYZ=    3.4227    5.4266    2.8718 Q=    0.4100 A=    0.0000 R=    0.0000 C=    0.0000
 XYZ=    6.8491   -5.1742   -0.0618 Q=   -0.8200 A=    0.0000 R=    0.0000 C=    0.0000
 XYZ=    7.6180   -5.2158   -0.7000 Q=    0.4100 A=    0.0000 R=    0.0000 C=    0.0000
 XYZ=    6.2411   -5.9519   -0.2214 Q=    0.4100 A=    0.0000 R=    0.0000 C=    0.0000
 XYZ=    4.4174    1.1150   -7.4089 Q=   -0.8200 A=    0.0000 R=    0.0000 C=    0.0000
 XYZ=    4.8580    1.8977   -6.9693 Q=    0.4100 A=    0.0000 R=    0.0000 C=    0.0000
 XYZ=    4.9412    0.2855   -7.2151 Q=    0.4100 A=    0.0000 R=    0.0000 C=    0.0000
 XYZ=   -0.3565    4.1939   -8.4123 Q=   -0.8200 A=    0.0000 R=    0.0000 C=    0.0000
 XYZ=   -1.1643    4.2467   -7.8251 Q=    0.4100 A=    0.0000 R=    0.0000 C=    0.0000
 XYZ=    0.4471    3.9838   -7.8555 Q=    0.4100 A=    0.0000 R=    0.0000 C=    0.0000
 XYZ=   -4.2384    2.7698   -7.8918 Q=   -0.8200 A=    0.0000 R=    0.0000 C=    0.0000
 XYZ=   -5.1161    2.3565   -7.6490 Q=    0.4100 A=    0.0000 R=    0.0000 C=    0.0000
 XYZ=   -4.3290    3.7657   -7.8971 Q=    0.4100 A=    0.0000 R=    0.0000 C=    0.0000
 XYZ=   -5.3502   -5.8572   -2.1130 Q=   -0.8200 A=    0.0000 R=    0.0000 C=    0.0000
 XYZ=   -4.5311   -5.2840   -2.0877 Q=    0.4100 A=    0.0000 R=    0.0000 C=    0.0000
 XYZ=   -5.7707   -5.7979   -3.0184 Q=    0.4100 A=    0.0000 R=    0.0000 C=    0.0000
 XYZ=    5.5684    2.9623   -6.2320 Q=   -0.8200 A=    0.0000 R=    0.0000 C=    0.0000
 XYZ=    6.2162    3.6253   -6.6073 Q=    0.4100 A=    0.0000 R=    0.0000 C=    0.0000
 XYZ=    6.0323    2.3882   -5.5573 Q=    0.4100 A=    0.0000 R=    0.0000 C=    0.0000
 XYZ=   -3.4262   -5.8172    4.8929 Q=   -0.8200 A=    0.0000 R=    0.0000 C=    0.0000
 XYZ=   -2.6072   -5.9193    4.3282 Q=    0.4100 A=    0.0000 R=    0.0000 C=    0.0000
 XYZ=   -3.3162   -6.3415    5.7374 Q=    0.4100 A=    0.0000 R=    0.0000 C=    0.0000
 XYZ=   -2.0937   -6.7545    2.3733 Q=   -0.8200 A=    0.0000 R=    0.0000 C=    0.0000
 XYZ=   -1.5703   -7.5460    2.0576 Q=    0.4100 A=    0.0000 R=    0.0000 C=    0.0000
 XYZ=   -2.9976   -6.7604    1.9455 Q=    0.4100 A=    0.0000 R=    0.0000 C=    0.0000
 XYZ=   -8.4460   -1.1080   -0.3205 Q=   -0.8200 A=    0.0000 R=    0.0000 C=    0.0000
 XYZ=   -8.4399   -1.7173   -1.1135 Q=    0.4100 A=    0.0000 R=    0.0000 C=    0.0000
 XYZ=   -8.2374   -1.6329    0.5047 Q=    0.4100 A=    0.0000 R=    0.0000 C=    0.0000
 XYZ=   -7.1843    4.9449    0.2818 Q=   -0.8200 A=    0.0000 R=    0.0000 C=    0.0000
 XYZ=   -6.9743    5.9006    0.0754 Q=    0.4100 A=    0.0000 R=    0.0000 C=    0.0000
 XYZ=   -7.9436    4.6390   -0.2926 Q=    0.4100 A=    0.0000 R=    0.0000 C=    0.0000
 XYZ=    2.6249   -1.5438    7.8738 Q=   -0.8200 A=    0.0000 R=    0.0000 C=    0.0000
 XYZ=    2.6298   -1.5886    8.8728 Q=    0.4100 A=    0.0000 R=    0.0000 C=    0.0000
 XYZ=    3.5108   -1.2110    7.5508 Q=    0.4100 A=    0.0000 R=    0.0000 C=    0.0000
 XYZ=    6.4070    4.2848   -1.6596 Q=   -0.8200 A=    0.0000 R=    0.0000 C=    0.0000
 XYZ=    7.0628    3.6563   -1.2412 Q=    0.4100 A=    0.0000 R=    0.0000 C=    0.0000
 XYZ=    6.5388    5.2023   -1.2843 Q=    0.4100 A=    0.0000 R=    0.0000 C=    0.0000
 XYZ=   -7.4210    0.5575    5.1067 Q=   -0.8200 A=    0.0000 R=    0.0000 C=    0.0000
 XYZ=   -6.7217   -0.0743    4.7719 Q=    0.4100 A=    0.0000 R=    0.0000 C=    0.0000
 XYZ=   -7.9540    0.1135    5.8270 Q=    0.4100 A=    0.0000 R=    0.0000 C=    0.0000
 XYZ=    8.7281   -1.9682    1.0675 Q=   -0.8200 A=    0.0000 R=    0.0000 C=    0.0000
 XYZ=    9.1476   -2.7580    1.5151 Q=    0.4100 A=    0.0000 R=    0.0000 C=    0.0000
 XYZ=    8.8469   -1.1579    1.6413 Q=    0.4100 A=    0.0000 R=    0.0000 C=    0.0000
 XYZ=   -3.0140    8.0399   -0.7493 Q=   -0.8200 A=    0.0000 R=    0.0000 C=    0.0000
 XYZ=   -2.1613    8.5402   -0.9002 Q=    0.4100 A=    0.0000 R=    0.0000 C=    0.0000
 XYZ=   -3.0122    7.6483    0.1709 Q=    0.4100 A=    0.0000 R=    0.0000 C=    0.0000
 XYZ=   -1.1111    8.8383   -3.1903 Q=   -0.8200 A=    0.0000 R=    0.0000 C=    0.0000
 XYZ=   -1.8713    9.1130   -3.7791 Q=    0.4100 A=    0.0000 R=    0.0000 C=    0.0000
 XYZ=   -0.9775    7.8495   -3.2581 Q=    0.4100 A=    0.0000 R=    0.0000 C=    0.0000
 XYZ=   -2.5263   -2.2971    8.5642 Q=   -0.8200 A=    0.0000 R=    0.0000 C=    0.0000
 XYZ=   -2.0640   -2.7051    7.7769 Q=    0.4100 A=    0.0000 R=    0.0000 C=    0.0000
 XYZ=   -2.2107   -2.7411    9.4029 Q=    0.4100 A=    0.0000 R=    0.0000 C=    0.0000
 XYZ=    7.7149    4.2858    2.5565 Q=   -0.8200 A=    0.0000 R=    0.0000 C=    0.0000
 XYZ=    8.3093    3.8707    3.2452 Q=    0.4100 A=    0.0000 R=    0.0000 C=    0.0000
 XYZ=    6.8248    3.8301    2.5661 Q=    0.4100 A=    0.0000 R=    0.0000 C=    0.0000
 XYZ=    7.0121    1.9277   -4.7442 Q=   -0.8200 A=    0.0000 R=    0.0000 C=    0.0000
 XYZ=    7.1946    2.8814   -4.5051 Q=    0.4100 A=    0.0000 R=    0.0000 C=    0.0000
 XYZ=    7.6533    1.3336   -4.2584 Q=    0.4100 A=    0.0000 R=    0.0000 C=    0.0000
 XYZ=    2.4133   -6.8787    3.9904 Q=   -0.8200 A=    0.0000 R=    0.0000 C=    0.0000
 XYZ=    1.9583   -6.8506    4.8804 Q=    0.4100 A=    0.0000 R=    0.0000 C=    0.0000
 XYZ=    2.4735   -7.8263    3.6766 Q=    0.4100 A=    0.0000 R=    0.0000 C=    0.0000
 XYZ=    1.5210    7.3706    1.0743 Q=   -0.8200 A=    0.0000 R=    0.0000 C=    0.0000
 XYZ=    0.6245    7.3391    1.5165 Q=    0.4100 A=    0.0000 R=    0.0000 C=    0.0000
 XYZ=    1.4111    7.2424    0.0887 Q=    0.4100 A=    0.0000 R=    0.0000 C=    0.0000
 XYZ=   -0.3759    4.2554    7.6834 Q=   -0.8200 A=    0.0000 R=    0.0000 C=    0.0000
 XYZ=   -0.1476    4.6735    8.5627 Q=    0.4100 A=    0.0000 R=    0.0000 C=    0.0000
 XYZ=   -0.2251    3.2681    7.7347 Q=    0.4100 A=    0.0000 R=    0.0000 C=    0.0000
 XYZ=    3.2693   -2.7653   -9.2371 Q=   -0.8200 A=    0.0000 R=    0.0000 C=    0.0000
 XYZ=    3.2351   -2.4303   -8.2955 Q=    0.4100 A=    0.0000 R=    0.0000 C=    0.0000
 XYZ=    4.1905   -3.0978   -9.4393 Q=    0.4100 A=    0.0000 R=    0.0000 C=    0.0000
 XYZ=    5.0291   -1.0110    6.8531 Q=   -0.8200 A=    0.0000 R=    0.0000 C=    0.0000
 XYZ=    5.4651   -0.7382    7.7108 Q=    0.4100 A=    0.0000 R=    0.0000 C=    0.0000
 XYZ=    5.2688   -1.9591    6.6443 Q=    0.4100 A=    0.0000 R=    0.0000 C=    0.0000
 XYZ=    2.6535   -5.6024   -7.5332 Q=   -0.8200 A=    0.0000 R=    0.0000 C=    0.0000
 XYZ=    3.3632   -5.7853   -8.2136 Q=    0.4100 A=    0.0000 R=    0.0000 C=    0.0000
 XYZ=    2.7339   -4.6584   -7.2132 Q=    0.4100 A=    0.0000 R=    0.0000 C=    0.0000
 XYZ=   -2.5229   -2.1983   -9.3829 Q=   -0.8200 A=    0.0000 R=    0.0000 C=    0.0000
 XYZ=   -2.7735   -2.9472   -9.9965 Q=    0.4100 A=    0.0000 R=    0.0000 C=    0.0000
 XYZ=   -2.5374   -2.5233   -8.4372 Q=    0.4100 A=    0.0000 R=    0.0000 C=    0.0000
 XYZ=   -7.2248    3.0908   -7.0366 Q=   -0.8200 A=    0.0000 R=    0.0000 C=    0.0000
 XYZ=   -6.9318    3.8025   -7.6751 Q=    0.4100 A=    0.0000 R=    0.0000 C=    0.0000
 XYZ=   -6.6208    2.2982   -7.1209 Q=    0.4100 A=    0.0000 R=    0.0000 C=    0.0000
 XYZ=    7.5030   -1.9963   -4.2213 Q=   -0.8200 A=    0.0000 R=    0.0000 C=    0.0000
 XYZ=    8.0905   -1.9262   -3.4150 Q=    0.4100 A=    0.0000 R=    0.0000 C=    0.0000
 XYZ=    7.3963   -2.9582   -4.4732 Q=    0.4100 A=    0.0000 R=    0.0000 C=    0.0000
 XYZ=   -4.7702    8.2332   -3.5629 Q=   -0.8200 A=    0.0000 R=    0.0000 C=    0.0000
 XYZ=   -5.0618    8.3197   -2.6102 Q=    0.4100 A=    0.0000 R=    0.0000 C=    0.0000
 XYZ=   -4.7530    7.2669   -3.8197 Q=    0.4100 A=    0.0000 R=    0.0000 C=    0.0000
 XYZ=   -8.7927    0.4769    3.3395 Q=   -0.8200 A=    0.0000 R=    0.0000 C=    0.0000
 XYZ=   -8.5513    1.2138    2.7079 Q=    0.4100 A=    0.0000 R=    0.0000 C=    0.0000
 XYZ=   -8.2569    0.5685    4.1789 Q=    0.4100 A=    0.0000 R=    0.0000 C=    0.0000
 XYZ=   -0.4700    8.8624   -0.9992 Q=   -0.8200 A=    0.0000 R=    0.0000 C=    0.0000
 XYZ=   -0.8348    9.0138   -1.9179 Q=    0.4100 A=    0.0000 R=    0.0000 C=    0.0000
 XYZ=    0.1134    8.0502   -1.0020 Q=    0.4100 A=    0.0000 R=    0.0000 C=    0.0000
 XYZ=    6.2872   -6.5458   -2.5133 Q=   -0.8200 A=    0.0000 R=    0.0000 C=    0.0000
 XYZ=    5.5311   -6.2899   -3.1157 Q=    0.4100 A=    0.0000 R=    0.0000 C=    0.0000
 XYZ=    7.1460   -6.5152   -3.0249 Q=    0.4100 A=    0.0000 R=    0.0000 C=    0.0000
 XYZ=   -8.9817    4.4142   -1.4147 Q=   -0.8200 A=    0.0000 R=    0.0000 C=    0.0000
 XYZ=   -9.4266    5.0146   -2.0793 Q=    0.4100 A=    0.0000 R=    0.0000 C=    0.0000
 XYZ=   -8.5197    3.6691   -1.8957 Q=    0.4100 A=    0.0000 R=    0.0000 C=    0.0000
 XYZ=    3.5907    1.6742    7.8526 Q=   -0.8200 A=    0.0000 R=    0.0000 C=    0.0000
 XYZ=    4.4709    1.9635    7.4764 Q=    0.4100 A=    0.0000 R=    0.0000 C=    0.0000
 XYZ=    3.4138    2.1678    8.7042 Q=    0.4100 A=    0.0000 R=    0.0000 C=    0.0000
 XYZ=    8.5023    0.5541   -3.5502 Q=   -0.8200 A=    0.0000 R=    0.0000 C=    0.0000
 XYZ=    9.1506    1.1604   -3.0895 Q=    0.4100 A=    0.0000 R=    0.0000 C=    0.0000
 XYZ=    8.5005   -0.3376   -3.0975 Q=    0.4100 A=    0.0000 R=    0.0000 C=    0.0000
 XYZ=    5.3483   -7.3267   -0.5986 Q=   -0.8200 A=    0.0000 R=    0.0000 C=    0.0000
 XYZ=    5.9054   -7.9989   -0.1110 Q=    0.4100 A=    0.0000 R=    0.0000 C=    0.0000
 XYZ=    5.7604   -7.1355   -1.4895 Q=    0.4100 A=    0.0000 R=    0.0000 C=    0.0000
 XYZ=    1.1963    0.3971   -9.4019 Q=   -0.8200 A=    0.0000 R=    0.0000 C=    0.0000
 XYZ=    0.9500    1.2682   -9.8270 Q=    0.4100 A=    0.0000 R=    0.0000 C=    0.0000
 XYZ=    0.4306   -0.2412   -9.4823 Q=    0.4100 A=    0.0000 R=    0.0000 C=    0.0000
 XYZ=    1.3047   -6.8153    6.0617 Q=   -0.8200 A=    0.0000 R=    0.0000 C=    0.0000
 XYZ=    0.4472   -7.2431    5.7760 Q=    0.4100 A=    0.0000 R=    0.0000 C=    0.0000
 XYZ=    1.1159   -5.9066    6.4342 Q=    0.4100 A=    0.0000 R=    0.0000 C=    0.0000
 XYZ=    6.6683   -7.0407    2.6329 Q=   -0.8200 A=    0.0000 R=    0.0000 C=    0.0000
 XYZ=    7.1878   -6.1973    2.4955 Q=    0.4100 A=    0.0000 R=    0.0000 C=    0.0000
 XYZ=    5.6942   -6.8247    2.7008 Q=    0.4100 A=    0.0000 R=    0.0000 C=    0.0000
 XYZ=    7.7262    4.1676   -3.7784 Q=   -0.8200 A=    0.0000 R=    0.0000 C=    0.0000
 XYZ=    7.2380    3.9908   -2.9237 Q=    0.4100 A=    0.0000 R=    0.0000 C=    0.0000
 XYZ=    8.7116    4.1517   -3.6087 Q=    0.4100 A=    0.0000 R=    0.0000 C=    0.0000
 XYZ=   -4.0546    2.1877  -10.1268 Q=   -0.8200 A=    0.0000 R=    0.0000 C=    0.0000
 XYZ=   -4.0961    2.4146   -9.1538 Q=    0.4100 A=    0.0000 R=    0.0000 C=    0.0000
 XYZ=   -4.0544    1.1939  -10.2376 Q=    0.4100 A=    0.0000 R=    0.0000 C=    0.0000
 XYZ=   -6.3526   -2.2528    6.7477 Q=   -0.8200 A=    0.0000 R=    0.0000 C=    0.0000
 XYZ=   -6.0272   -1.8655    5.8851 Q=    0.4100 A=    0.0000 R=    0.0000 C=    0.0000
 XYZ=   -5.5806   -2.6405    7.2513 Q=    0.4100 A=    0.0000 R=    0.0000 C=    0.0000
 XYZ=   -1.1321   -8.6905    1.5698 Q=   -0.8200 A=    0.0000 R=    0.0000 C=    0.0000
 XYZ=   -0.3592   -8.1889    1.1811 Q=    0.4100 A=    0.0000 R=    0.0000 C=    0.0000
 XYZ=   -1.5605   -9.2466    0.8576 Q=    0.4100 A=    0.0000 R=    0.0000 C=    0.0000
 XYZ=    5.5984    2.7270    7.0791 Q=   -0.8200 A=    0.0000 R=    0.0000 C=    0.0000
 XYZ=    5.9085    2.5186    6.1515 Q=    0.4100 A=    0.0000 R=    0.0000 C=    0.0000
 XYZ=    6.3864    2.9571    7.6502 Q=    0.4100 A=    0.0000 R=    0.0000 C=    0.0000
 XYZ=    8.2639    3.0365    4.5500 Q=   -0.8200 A=    0.0000 R=    0.0000 C=    0.0000
 XYZ=    7.3131    2.7532    4.6754 Q=    0.4100 A=    0.0000 R=    0.0000 C=    0.0000
 XYZ=    8.8728    2.3178    4.8857 Q=    0.4100 A=    0.0000 R=    0.0000 C=    0.0000
 XYZ=    6.6137   -2.8593   -7.6847 Q=   -0.8200 A=    0.0000 R=    0.0000 C=    0.0000
 XYZ=    6.1277   -2.0924   -7.2654 Q=    0.4100 A=    0.0000 R=    0.0000 C=    0.0000
 XYZ=    6.5099   -3.6726   -7.1122 Q=    0.4100 A=    0.0000 R=    0.0000 C=    0.0000
 XYZ=   -0.3032   -1.2846   -9.6127 Q=   -0.8200 A=    0.0000 R=    0.0000 C=    0.0000
 XYZ=    0.3018   -2.0808   -9.6017 Q=    0.4100 A=    0.0000 R=    0.0000 C=    0.0000
 XYZ=   -1.2460   -1.5803   -9.4584 Q=    0.4100 A=    0.0000 R=    0.0000 C=    0.0000
 XYZ=   -9.2910   -1.8584    2.8837 Q=   -0.8200 A=    0.0000 R=    0.0000 C=    0.0000
 XYZ=   -8.6233   -2.3104    2.2922 Q=    0.4100 A=    0.0000 R=    0.0000 C=    0.0000
 XYZ=   -9.0160   -0.9084    3.0316 Q=    0.4100 A=    0.0000 R=    0.0000 C=    0.0000
 XYZ=    6.1546    6.1967    3.0695 Q=   -0.8200 A=    0.0000 R=    0.0000 C=    0.0000
 XYZ=    5.3461    5.6948    3.3767 Q=    0.4100 A=    0.0000 R=    0.0000 C=    0.0000
 XYZ=    6.8003    5.5613    2.6461 Q=    0.4100 A=    0.0000 R=    0.0000 C=    0.0000
 XYZ=    0.8063    2.4898  -10.0510 Q=   -0.8200 A=    0.0000 R=    0.0000 C=    0.0000
 XYZ=    0.2153    2.9865   -9.4154 Q=    0.4100 A=    0.0000 R=    0.0000 C=    0.0000
 XYZ=    1.5533    3.0855  -10.3463 Q=    0.4100 A=    0.0000 R=    0.0000 C=    0.0000
 XYZ=   10.4360   -1.9041   -0.5063 Q=   -0.8200 A=    0.0000 R=    0.0000 C=    0.0000
 XYZ=   11.2658   -2.2236   -0.0487 Q=    0.4100 A=    0.0000 R=    0.0000 C=    0.0000
 XYZ=    9.6500   -2.0377    0.0973 Q=    0.4100 A=    0.0000 R=    0.0000 C=    0.0000
 XYZ=   -2.7367    3.7145    8.1807 Q=   -0.8200 A=    0.0000 R=    0.0000 C=    0.0000
 XYZ=   -1.8317    4.0199    7.8844 Q=    0.4100 A=    0.0000 R=    0.0000 C=    0.0000
 XYZ=   -2.6558    2.8310    8.6421 Q=    0.4100 A=    0.0000 R=    0.0000 C=    0.0000
 XYZ=   -5.3106    8.4389   -1.1946 Q=   -0.8200 A=    0.0000 R=    0.0000 C=    0.0000
 XYZ=   -5.7006    9.1125   -0.5667 Q=    0.4100 A=    0.0000 R=    0.0000 C=    0.0000
 XYZ=   -4.3367    8.3249   -0.9981 Q=    0.4100 A=    0.0000 R=    0.0000 C=    0.0000
 XYZ=    0.1210   -6.0709   -7.8306 Q=   -0.8200 A=    0.0000 R=    0.0000 C=    0.0000
 XYZ=    0.1288   -7.0709   -7.8318 Q=    0.4100 A=    0.0000 R=    0.0000 C=    0.0000
 XYZ=    1.0170   -5.7309   -7.5450 Q=    0.4100 A=    0.0000 R=    0.0000 C=    0.0000
 XYZ=    3.7804    7.1669    0.2425 Q=   -0.8200 A=    0.0000 R=    0.0000 C=    0.0000
 XYZ=    2.9813    7.5004    0.7428 Q=    0.4100 A=    0.0000 R=    0.0000 C=    0.0000
 XYZ=    4.6102    7.5569    0.6417 Q=    0.4100 A=    0.0000 R=    0.0000 C=    0.0000
 XYZ=   -6.0968   -6.4916   -0.0589 Q=   -0.8200 A=    0.0000 R=    0.0000 C=    0.0000
 XYZ=   -5.7338   -6.2559   -0.9605 Q=    0.4100 A=    0.0000 R=    0.0000 C=    0.0000
 XYZ=   -6.2715   -7.4754   -0.0168 Q=    0.4100 A=    0.0000 R=    0.0000 C=    0.0000
 XYZ=   -4.5257   -3.2615    7.7231 Q=   -0.8200 A=    0.0000 R=    0.0000 C=    0.0000
 XYZ=   -3.7500   -2.7112    8.0320 Q=    0.4100 A=    0.0000 R=    0.0000 C=    0.0000
 XYZ=   -4.5233   -4.1394    8.2020 Q=    0.4100 A=    0.0000 R=    0.0000 C=    0.0000
 XYZ=   -7.3253    4.3619    4.3582 Q=   -0.8200 A=    0.0000 R=    0.0000 C=    0.0000
 XYZ=   -8.2216    4.7882    4.2364 Q=    0.4100 A=    0.0000 R=    0.0000 C=    0.0000
 XYZ=   -7.3954    3.6249    5.0305 Q=    0.4100 A=    0.0000 R=    0.0000 C=    0.0000
 XYZ=   -5.2995   -6.6618    3.7419 Q=   -0.8200 A=    0.0000 R=    0.0000 C=    0.0000
 XYZ=   -4.5593   -6.2798    4.2954 Q=    0.4100 A=    0.0000 R=    0.0000 C=    0.0000
 XYZ=   -4.9736   -6.8137    2.8088 Q=    0.4100 A=    0.0000 R=    0.0000 C=    0.0000
 XYZ=  -10.6999   -0.7035   -0.5586 Q=   -0.8200 A=    0.0000 R=    0.0000 C=    0.0000
 XYZ=  -10.8530    0.1258   -1.0962 Q=    0.4100 A=    0.0000 R=    0.0000 C=    0.0000
 XYZ=   -9.7171   -0.8592   -0.4587 Q=    0.4100 A=    0.0000 R=    0.0000 C=    0.0000
 XYZ=   -4.2362    5.2975   -8.2988 Q=   -0.8200 A=    0.0000 R=    0.0000 C=    0.0000
 XYZ=   -3.9326    6.2149   -8.5560 Q=    0.4100 A=    0.0000 R=    0.0000 C=    0.0000
 XYZ=   -5.1036    5.0940   -8.7529 Q=    0.4100 A=    0.0000 R=    0.0000 C=    0.0000
 XYZ=   -0.2178   -5.3236    9.0758 Q=   -0.8200 A=    0.0000 R=    0.0000 C=    0.0000
 XYZ=   -0.0785   -5.0079    8.1371 Q=    0.4100 A=    0.0000 R=    0.0000 C=    0.0000
 XYZ=    0.5814   -5.8455    9.3739 Q=    0.4100 A=    0.0000 R=    0.0000 C=    0.0000
 XYZ=    9.8033   -3.7832    2.2033 Q=   -0.8200 A=    0.0000 R=    0.0000 C=    0.0000
 XYZ=    8.9342   -4.2120    2.4501 Q=    0.4100 A=    0.0000 R=    0.0000 C=    0.0000
 XYZ=   10.3183   -4.3951    1.6030 Q=    0.4100 A=    0.0000 R=    0.0000 C=    0.0000
 XYZ=   -4.3282   -7.1770    1.6245 Q=   -0.8200 A=    0.0000 R=    0.0000 C=    0.0000
 XYZ=   -4.0147   -8.1051    1.4236 Q=    0.4100 A=    0.0000 R=    0.0000 C=    0.0000
 XYZ=   -4.9351   -6.8647    0.8936 Q=    0.4100 A=    0.0000 R=    0.0000 C=    0.0000
 XYZ=   -9.9788    3.7946    2.2530 Q=   -0.8200 A=    0.0000 R=    0.0000 C=    0.0000
 XYZ=   -9.2847    3.1069    2.0403 Q=    0.4100 A=    0.0000 R=    0.0000 C=    0.0000
 XYZ=  -10.6884    3.3855    2.8268 Q=    0.4100 A=    0.0000 R=    0.0000 C=    0.0000
 XYZ=   -3.2601   -0.3393    9.6273 Q=   -0.8200 A=    0.0000 R=    0.0000 C=    0.0000
 XYZ=   -2.8600   -1.0740    9.0794 Q=    0.4100 A=    0.0000 R=    0.0000 C=    0.0000
 XYZ=   -2.9462   -0.4201   10.5733 Q=    0.4100 A=    0.0000 R=    0.0000 C=    0.0000
 XYZ=   -6.7781   -4.8421    3.3911 Q=   -0.8200 A=    0.0000 R=    0.0000 C=    0.0000
 XYZ=   -6.9980   -4.4740    4.2945 Q=    0.4100 A=    0.0000 R=    0.0000 C=    0.0000
 XYZ=   -6.2491   -5.6845    3.4942 Q=    0.4100 A=    0.0000 R=    0.0000 C=    0.0000
 XYZ=   -6.6003   -0.6591   -8.3331 Q=   -0.8200 A=    0.0000 R=    0.0000 C=    0.0000
 XYZ=   -7.3961   -1.2047   -8.0702 Q=    0.4100 A=    0.0000 R=    0.0000 C=    0.0000
 XYZ=   -6.1936   -1.0413   -9.1629 Q=    0.4100 A=    0.0000 R=    0.0000 C=    0.0000
 XYZ=    9.8499    2.0736   -2.2896 Q=   -0.8200 A=    0.0000 R=    0.0000 C=    0.0000
 XYZ=    9.1930    2.4500   -1.6362 Q=    0.4100 A=    0.0000 R=    0.0000 C=    0.0000
 XYZ=   10.3397    1.3106   -1.8678 Q=    0.4100 A=    0.0000 R=    0.0000 C=    0.0000
 XYZ=   -7.0256    7.1100   -0.2511 Q=   -0.8200 A=    0.0000 R=    0.0000 C=    0.0000
 XYZ=   -6.2992    7.5464   -0.7820 Q=    0.4100 A=    0.0000 R=    0.0000 C=    0.0000
 XYZ=   -7.5755    7.8122    0.2014 Q=    0.4100 A=    0.0000 R=    0.0000 C=    0.0000
 XYZ=   -8.0127    2.6526    5.9040 Q=   -0.8200 A=    0.0000 R=    0.0000 C=    0.0000
 XYZ=   -7.8700    2.5714    6.8905 Q=    0.4100 A=    0.0000 R=    0.0000 C=    0.0000
 XYZ=   -7.7398    1.8009    5.4566 Q=    0.4100 A=    0.0000 R=    0.0000 C=    0.0000
 XYZ=    9.4074    3.2672    1.0149 Q=   -0.8200 A=    0.0000 R=    0.0000 C=    0.0000
 XYZ=    8.6812    3.7246    1.5281 Q=    0.4100 A=    0.0000 R=    0.0000 C=    0.0000
 XYZ=   10.1920    3.8812    0.9282 Q=    0.4100 A=    0.0000 R=    0.0000 C=    0.0000
 XYZ=    1.0375    2.5052   10.2642 Q=   -0.8200 A=    0.0000 R=    0.0000 C=    0.0000
 XYZ=    2.0220    2.6676   10.1980 Q=    0.4100 A=    0.0000 R=    0.0000 C=    0.0000
 XYZ=    0.6655    2.3361    9.3514 Q=    0.4100 A=    0.0000 R=    0.0000 C=    0.0000
 XYZ=   -7.8184   -5.3252    1.2714 Q=   -0.8200 A=    0.0000 R=    0.0000 C=    0.0000
 XYZ=   -7.1137   -5.6530    0.6422 Q=    0.4100 A=    0.0000 R=    0.0000 C=    0.0000
 XYZ=   -7.4161   -5.1780    2.1750 Q=    0.4100 A=    0.0000 R=    0.0000 C=    0.0000
 XYZ=   -3.7353   -0.2631  -10.2019 Q=   -0.8200 A=    0.0000 R=    0.0000 C=    0.0000
 XYZ=   -3.2300   -1.0738   -9.9059 Q=    0.4100 A=    0.0000 R=    0.0000 C=    0.0000
 XYZ=   -4.6889   -0.5096  -10.3750 Q=    0.4100 A=    0.0000 R=    0.0000 C=    0.0000
 XYZ=   -2.1709    1.7607    9.3832 Q=   -0.8200 A=    0.0000 R=    0.0000 C=    0.0000
 XYZ=   -2.5331    0.8318    9.3065 Q=    0.4100 A=    0.0000 R=    0.0000 C=    0.0000
 XYZ=   -2.0002    1.9736   10.3452 Q=    0.4100 A=    0.0000 R=    0.0000 C=    0.0000
 XYZ=   10.5494    1.2387    1.4642 Q=   -0.8200 A=    0.0000 R=    0.0000 C=    0.0000
 XYZ=    9.9702    0.5738    1.9358 Q=    0.4100 A=    0.0000 R=    0.0000 C=    0.0000
 XYZ=   10.0890    2.1262    1.4435 Q=    0.4100 A=    0.0000 R=    0.0000 C=    0.0000
 XYZ=   -1.6897    5.5323   -9.9516 Q=   -0.8200 A=    0.0000 R=    0.0000 C=    0.0000
 XYZ=   -2.0748    4.8203  -10.5388 Q=    0.4100 A=    0.0000 R=    0.0000 C=    0.0000
 XYZ=   -1.1403    5.1091   -9.2311 Q=    0.4100 A=    0.0000 R=    0.0000 C=    0.0000
 XYZ=   -0.7878   -7.6317    5.5739 Q=   -0.8200 A=    0.0000 R=    0.0000 C=    0.0000
 XYZ=   -1.5484   -7.5267    6.2148 Q=    0.4100 A=    0.0000 R=    0.0000 C=    0.0000
 XYZ=   -0.9923   -8.3712    4.9324 Q=    0.4100 A=    0.0000 R=    0.0000 C=    0.0000
 XYZ=    1.0590   -3.1398  -10.1828 Q=   -0.8200 A=    0.0000 R=    0.0000 C=    0.0000
 XYZ=    1.9437   -3.0042   -9.7366 Q=    0.4100 A=    0.0000 R=    0.0000 C=    0.0000
 XYZ=    1.1855   -3.1590  -11.1747 Q=    0.4100 A=    0.0000 R=    0.0000 C=    0.0000
 XYZ=   -6.5120   -5.7296   -4.2378 Q=   -0.8200 A=    0.0000 R=    0.0000 C=    0.0000
 XYZ=   -6.4926   -5.3336   -5.1559 Q=    0.4100 A=    0.0000 R=    0.0000 C=    0.0000
 XYZ=   -7.4355   -6.0551   -4.0347 Q=    0.4100 A=    0.0000 R=    0.0000 C=    0.0000
 XYZ=    6.5602    5.9182   -4.9171 Q=   -0.8200 A=    0.0000 R=    0.0000 C=    0.0000
 XYZ=    7.0289    5.2568   -4.3315 Q=    0.4100 A=    0.0000 R=    0.0000 C=    0.0000
 XYZ=    6.6325    5.6283   -5.8715 Q=    0.4100 A=    0.0000 R=    0.0000 C=    0.0000
 XYZ=    2.4761   -1.0991  -10.9699 Q=   -0.8200 A=    0.0000 R=    0.0000 C=    0.0000
 XYZ=    2.0899   -0.4457  -10.3189 Q=    0.4100 A=    0.0000 R=    0.0000 C=    0.0000
 XYZ=    2.9342   -1.8351  -10.4714 Q=    0.4100 A=    0.0000 R=    0.0000 C=    0.0000
 XYZ=    6.7053    6.6404   -1.0886 Q=   -0.8200 A=    0.0000 R=    0.0000 C=    0.0000
 XYZ=    5.9060    6.8616   -1.6474 Q=    0.4100 A=    0.0000 R=    0.0000 C=    0.0000
 XYZ=    6.5391    6.9214   -0.1434 Q=    0.4100 A=    0.0000 R=    0.0000 C=    0.0000
 XYZ=   -6.4334    5.9226    5.7705 Q=   -0.8200 A=    0.0000 R=    0.0000 C=    0.0000
 XYZ=   -7.2088    6.1263    6.3682 Q=    0.4100 A=    0.0000 R=    0.0000 C=    0.0000
 XYZ=   -6.7607    5.4622    4.9453 Q=    0.4100 A=    0.0000 R=    0.0000 C=    0.0000
 XYZ=    6.6865   -8.6679    0.7539 Q=   -0.8200 A=    0.0000 R=    0.0000 C=    0.0000
 XYZ=    6.5546   -7.8902    1.3686 Q=    0.4100 A=    0.0000 R=    0.0000 C=    0.0000
 XYZ=    6.8919   -9.4861    1.2910 Q=    0.4100 A=    0.0000 R=    0.0000 C=    0.0000
 XYZ=   -2.9546    9.5775   -4.4285 Q=   -0.8200 A=    0.0000 R=    0.0000 C=    0.0000
 XYZ=   -2.9649   10.5466   -4.1821 Q=    0.4100 A=    0.0000 R=    0.0000 C=    0.0000
 XYZ=   -3.5825    9.0757   -3.8336 Q=    0.4100 A=    0.0000 R=    0.0000 C=    0.0000
 XYZ=    4.7373    4.8889    7.0837 Q=   -0.8200 A=    0.0000 R=    0.0000 C=    0.0000
 XYZ=    5.4853    5.5510    7.1306 Q=    0.4100 A=    0.0000 R=    0.0000 C=    0.0000
 XYZ=    5.1011    3.9658    7.2082 Q=    0.4100 A=    0.0000 R=    0.0000 C=    0.0000
 XYZ=    5.8972   -5.0677   -6.7970 Q=   -0.8200 A=    0.0000 R=    0.0000 C=    0.0000
 XYZ=    6.3394   -5.8000   -6.2789 Q=    0.4100 A=    0.0000 R=    0.0000 C=    0.0000
 XYZ=    5.7114   -5.3832   -7.7276 Q=    0.4100 A=    0.0000 R=    0.0000 C=    0.0000
 XYZ=   -2.3529   -6.4997   -7.8161 Q=   -0.8200 A=    0.0000 R=    0.0000 C=    0.0000
 XYZ=   -1.4102   -6.1982   -7.6726 Q=    0.4100 A=    0.0000 R=    0.0000 C=    0.0000
 XYZ=   -2.6688   -7.0008   -7.0104 Q=    0.4100 A=    0.0000 R=    0.0000 C=    0.0000
 XYZ=   -1.5878   -9.0307    3.8607 Q=   -0.8200 A=    0.0000 R=    0.0000 C=    0.0000
 XYZ=   -1.3239   -9.0042    2.8965 Q=    0.4100 A=    0.0000 R=    0.0000 C=    0.0000
 XYZ=   -2.2263   -8.2853    4.0521 Q=    0.4100 A=    0.0000 R=    0.0000 C=    0.0000
 XYZ=   -3.6044    8.7398    2.8489 Q=   -0.8200 A=    0.0000 R=    0.0000 C=    0.0000
 XYZ=   -3.9174    8.3374    3.7093 Q=    0.4100 A=    0.0000 R=    0.0000 C=    0.0000
 XYZ=   -4.2601    9.4317    2.5466 Q=    0.4100 A=    0.0000 R=    0.0000 C=    0.0000
 XYZ=   -9.4247    3.2428   -6.8972 Q=   -0.8200 A=    0.0000 R=    0.0000 C=    0.0000
 XYZ=   -9.7652    4.0356   -7.4027 Q=    0.4100 A=    0.0000 R=    0.0000 C=    0.0000
 XYZ=   -8.4250    3.2363   -6.9216 Q=    0.4100 A=    0.0000 R=    0.0000 C=    0.0000
 XYZ=   -1.4548   -0.1817  -11.3281 Q=   -0.8200 A=    0.0000 R=    0.0000 C=    0.0000
 XYZ=   -0.9030   -0.6169  -10.6166 Q=    0.4100 A=    0.0000 R=    0.0000 C=    0.0000
 XYZ=   -2.3870   -0.0481  -10.9918 Q=    0.4100 A=    0.0000 R=    0.0000 C=    0.0000
 XYZ=   -0.7003    7.9951    5.6534 Q=   -0.8200 A=    0.0000 R=    0.0000 C=    0.0000
 XYZ=   -0.0336    7.3262    5.9823 Q=    0.4100 A=    0.0000 R=    0.0000 C=    0.0000
 XYZ=   -1.6247    7.6699    5.8526 Q=    0.4100 A=    0.0000 R=    0.0000 C=    0.0000
 XYZ=   -2.7638    7.0320    6.0797 Q=   -0.8200 A=    0.0000 R=    0.0000 C=    0.0000
 XYZ=   -3.4642    7.3423    5.4369 Q=    0.4100 A=    0.0000 R=    0.0000 C=    0.0000
 XYZ=   -3.1998    6.5563    6.8437 Q=    0.4100 A=    0.0000 R=    0.0000 C=    0.0000
 XYZ=   -0.5043   -4.9979   -9.6673 Q=   -0.8200 A=    0.0000 R=    0.0000 C=    0.0000
 XYZ=    0.1718   -4.3388   -9.9970 Q=    0.4100 A=    0.0000 R=    0.0000 C=    0.0000
 XYZ=   -0.1225   -5.5105   -8.8982 Q=    0.4100 A=    0.0000 R=    0.0000 C=    0.0000
 XYZ=    8.7894   -2.3766   -6.7901 Q=   -0.8200 A=    0.0000 R=    0.0000 C=    0.0000
 XYZ=    7.9871   -2.7024   -7.2901 Q=    0.4100 A=    0.0000 R=    0.0000 C=    0.0000
 XYZ=    8.5031   -1.7203   -6.0920 Q=    0.4100 A=    0.0000 R=    0.0000 C=    0.0000
 XYZ=   -6.7100   -5.0355   -6.4070 Q=   -0.8200 A=    0.0000 R=    0.0000 C=    0.0000
 XYZ=   -6.2621   -5.5423   -7.1435 Q=    0.4100 A=    0.0000 R=    0.0000 C=    0.0000
 XYZ=   -7.1720   -4.2341   -6.7870 Q=    0.4100 A=    0.0000 R=    0.0000 C=    0.0000
 XYZ=   10.9917    0.5308   -0.9470 Q=   -0.8200 A=    0.0000 R=    0.0000 C=    0.0000
 XYZ=   10.7563   -0.4410   -0.9592 Q=    0.4100 A=    0.0000 R=    0.0000 C=    0.0000
 XYZ=   10.8090    0.9066   -0.0384 Q=    0.4100 A=    0.0000 R=    0.0000 C=    0.0000
 XYZ=    9.0335   -6.0938   -1.2312 Q=   -0.8200 A=    0.0000 R=    0.0000 C=    0.0000
 XYZ=    8.6647   -6.0961   -2.1608 Q=    0.4100 A=    0.0000 R=    0.0000 C=    0.0000
 XYZ=    8.9812   -7.0167   -0.8496 Q=    0.4100 A=    0.0000 R=    0.0000 C=    0.0000
 XYZ=  -10.4403    1.9686   -3.2695 Q=   -0.8200 A=    0.0000 R=    0.0000 C=    0.0000
 XYZ=  -10.6480    1.9194   -2.2925 Q=    0.4100 A=    0.0000 R=    0.0000 C=    0.0000
 XYZ=  -11.1914    1.5633   -3.7907 Q=    0.4100 A=    0.0000 R=    0.0000 C=    0.0000
 XYZ=   -4.7155    5.7361    7.5279 Q=   -0.8200 A=    0.0000 R=    0.0000 C=    0.0000
 XYZ=   -5.3158    5.7780    6.7292 Q=    0.4100 A=    0.0000 R=    0.0000 C=    0.0000
 XYZ=   -4.2187    4.8682    7.5264 Q=    0.4100 A=    0.0000 R=    0.0000 C=    0.0000
 XYZ=   -1.2279    9.0157    3.5317 Q=   -0.8200 A=    0.0000 R=    0.0000 C=    0.0000
 XYZ=   -2.2093    9.1026    3.3605 Q=    0.4100 A=    0.0000 R=    0.0000 C=    0.0000
 XYZ=   -1.0817    8.5313    4.3942 Q=    0.4100 A=    0.0000 R=    0.0000 C=    0.0000
 XYZ=   -4.8477    7.6505    5.0482 Q=   -0.8200 A=    0.0000 R=    0.0000 C=    0.0000
 XYZ=   -5.4144    6.8878    5.3600 Q=    0.4100 A=    0.0000 R=    0.0000 C=    0.0000
 XYZ=   -5.3274    8.5120    5.2146 Q=    0.4100 A=    0.0000 R=    0.0000 C=    0.0000
 XYZ=    6.3329    7.5441    1.1634 Q=   -0.8200 A=    0.0000 R=    0.0000 C=    0.0000
 XYZ=    6.7157    8.4439    1.3731 Q=    0.4100 A=    0.0000 R=    0.0000 C=    0.0000
 XYZ=    6.1985    7.0331    2.0125 Q=    0.4100 A=    0.0000 R=    0.0000 C=    0.0000
 XYZ=    2.3839   -7.9395   -7.5650 Q=   -0.8200 A=    0.0000 R=    0.0000 C=    0.0000
 XYZ=    3.3251   -8.2350   -7.4013 Q=    0.4100 A=    0.0000 R=    0.0000 C=    0.0000
 XYZ=    2.3559   -6.9428   -7.6406 Q=    0.4100 A=    0.0000 R=    0.0000 C=    0.0000
 XYZ=   -5.5795   -7.7634   -5.1010 Q=   -0.8200 A=    0.0000 R=    0.0000 C=    0.0000
 XYZ=   -5.6641   -6.8732   -4.6533 Q=    0.4100 A=    0.0000 R=    0.0000 C=    0.0000
 XYZ=   -5.7893   -8.4879   -4.4444 Q=    0.4100 A=    0.0000 R=    0.0000 C=    0.0000
 XYZ=    0.0363   10.6377    0.2362 Q=   -0.8200 A=    0.0000 R=    0.0000 C=    0.0000
 XYZ=    0.8176   11.0890   -0.1950 Q=    0.4100 A=    0.0000 R=    0.0000 C=    0.0000
 XYZ=   -0.1826    9.8001   -0.2644 Q=    0.4100 A=    0.0000 R=    0.0000 C=    0.0000
 XYZ=    5.6172   -0.0546    9.1475 Q=   -0.8200 A=    0.0000 R=    0.0000 C=    0.0000
 XYZ=    5.0683    0.7813    9.1583 Q=    0.4100 A=    0.0000 R=    0.0000 C=    0.0000
 XYZ=    6.4432    0.0821    9.6945 Q=    0.4100 A=    0.0000 R=    0.0000 C=    0.0000
 XYZ=   -2.4185    3.6685  -11.1977 Q=   -0.8200 A=    0.0000 R=    0.0000 C=    0.0000
 XYZ=   -3.1420    3.1830  -10.7070 Q=    0.4100 A=    0.0000 R=    0.0000 C=    0.0000
 XYZ=   -1.6922    3.0258  -11.4418 Q=    0.4100 A=    0.0000 R=    0.0000 C=    0.0000
 XYZ=  -10.8355    3.4790   -0.0476 Q=   -0.8200 A=    0.0000 R=    0.0000 C=    0.0000
 XYZ=  -10.2623    4.0007   -0.6796 Q=    0.4100 A=    0.0000 R=    0.0000 C=    0.0000
 XYZ=  -10.5701    3.6886    0.8935 Q=    0.4100 A=    0.0000 R=    0.0000 C=    0.0000
 XYZ=  -11.0882    0.3007    3.7394 Q=   -0.8200 A=    0.0000 R=    0.0000 C=    0.0000
 XYZ=  -10.1071    0.4772    3.6604 Q=    0.4100 A=    0.0000 R=    0.0000 C=    0.0000
 XYZ=  -11.3919   -0.2478    2.9602 Q=    0.4100 A=    0.0000 R=    0.0000 C=    0.0000
 XYZ=  -10.3172    3.7862   -4.7389 Q=   -0.8200 A=    0.0000 R=    0.0000 C=    0.0000
 XYZ=   -9.8213    3.4809   -5.5518 Q=    0.4100 A=    0.0000 R=    0.0000 C=    0.0000
 XYZ=  -10.2988    3.0647   -4.0467 Q=    0.4100 A=    0.0000 R=    0.0000 C=    0.0000
 XYZ=   -7.6373   -4.0985    5.5935 Q=   -0.8200 A=    0.0000 R=    0.0000 C=    0.0000
 XYZ=   -8.4513   -3.6143    5.2726 Q=    0.4100 A=    0.0000 R=    0.0000 C=    0.0000
 XYZ=   -7.1023   -3.4952    6.1851 Q=    0.4100 A=    0.0000 R=    0.0000 C=    0.0000
 XYZ=   -6.3149    4.6237   -8.9641 Q=   -0.8200 A=    0.0000 R=    0.0000 C=    0.0000
 XYZ=   -6.8110    5.3103   -9.4956 Q=    0.4100 A=    0.0000 R=    0.0000 C=    0.0000
 XYZ=   -6.2442    3.7788   -9.4944 Q=    0.4100 A=    0.0000 R=    0.0000 C=    0.0000
 XYZ=    6.8272    4.7862   -6.9943 Q=   -0.8200 A=    0.0000 R=    0.0000 C=    0.0000
 XYZ=    7.7622    5.1265   -6.8942 Q=    0.4100 A=    0.0000 R=    0.0000 C=    0.0000
 XYZ=    6.6079    4.6953   -7.9658 Q=    0.4100 A=    0.0000 R=    0.0000 C=    0.0000
 XYZ=    9.5984    1.2939    4.9546 Q=   -0.8200 A=    0.0000 R=    0.0000 C=    0.0000
 XYZ=   10.4989    1.7084    4.8229 Q=    0.4100 A=    0.0000 R=    0.0000 C=    0.0000
 XYZ=    9.6743    0.5278    5.5929 Q=    0.4100 A=    0.0000 R=    0.0000 C=    0.0000
 XYZ=   -6.2957    2.6913  -10.2671 Q=   -0.8200 A=    0.0000 R=    0.0000 C=    0.0000
 XYZ=   -6.9505    1.9410  -10.3590 Q=    0.4100 A=    0.0000 R=    0.0000 C=    0.0000
 XYZ=   -5.3649    2.3296  -10.3206 Q=    0.4100 A=    0.0000 R=    0.0000 C=    0.0000
 XYZ=   -8.5453   -1.2452    6.4339 Q=   -0.8200 A=    0.0000 R=    0.0000 C=    0.0000
 XYZ=   -9.1988   -1.8266    5.9490 Q=    0.4100 A=    0.0000 R=    0.0000 C=    0.0000
 XYZ=   -7.7127   -1.7657    6.6232 Q=    0.4100 A=    0.0000 R=    0.0000 C=    0.0000
 XYZ=   -0.7728    2.2231  -11.7829 Q=   -0.8200 A=    0.0000 R=    0.0000 C=    0.0000
 XYZ=   -0.0492    2.4104  -11.1187 Q=    0.4100 A=    0.0000 R=    0.0000 C=    0.0000
 XYZ=   -1.1075    1.2893  -11.6568 Q=    0.4100 A=    0.0000 R=    0.0000 C=    0.0000
 XYZ=    5.4241   -3.4317   -9.6802 Q=   -0.8200 A=    0.0000 R=    0.0000 C=    0.0000
 XYZ=    5.8238   -3.3212  -10.5901 Q=    0.4100 A=    0.0000 R=    0.0000 C=    0.0000
 XYZ=    6.0783   -3.1243   -8.9891 Q=    0.4100 A=    0.0000 R=    0.0000 C=    0.0000
 XYZ=   -2.9995   -7.3519    6.7987 Q=   -0.8200 A=    0.0000 R=    0.0000 C=    0.0000
 XYZ=   -2.5729   -7.0018    7.6326 Q=    0.4100 A=    0.0000 R=    0.0000 C=    0.0000
 XYZ=   -3.8717   -7.7846    7.0269 Q=    0.4100 A=    0.0000 R=    0.0000 C=    0.0000
 XYZ=    3.9334   -1.4834   10.0511 Q=   -0.8200 A=    0.0000 R=    0.0000 C=    0.0000
 XYZ=    4.7023   -0.9360    9.7207 Q=    0.4100 A=    0.0000 R=    0.0000 C=    0.0000
 XYZ=    4.2413   -2.4184   10.2273 Q=    0.4100 A=    0.0000 R=    0.0000 C=    0.0000
 XYZ=   -9.4442    5.2961    3.8351 Q=   -0.8200 A=    0.0000 R=    0.0000 C=    0.0000
 XYZ=   -9.8722    4.9507    4.6703 Q=    0.4100 A=    0.0000 R=    0.0000 C=    0.0000
 XYZ=   -9.6730    4.6942    3.0699 Q=    0.4100 A=    0.0000 R=    0.0000 C=    0.0000
 XYZ=   -0.0458    4.5864   10.0734 Q=   -0.8200 A=    0.0000 R=    0.0000 C=    0.0000
 XYZ=   -0.8910    4.6212   10.6068 Q=    0.4100 A=    0.0000 R=    0.0000 C=    0.0000
 XYZ=    0.3184    3.6551   10.0864 Q=    0.4100 A=    0.0000 R=    0.0000 C=    0.0000
 XYZ=   -5.8929    9.9458   -4.7761 Q=   -0.8200 A=    0.0000 R=    0.0000 C=    0.0000
 XYZ=   -5.4279    9.2313   -4.2534 Q=    0.4100 A=    0.0000 R=    0.0000 C=    0.0000
 XYZ=   -5.4138   10.0909   -5.6418 Q=    0.4100 A=    0.0000 R=    0.0000 C=    0.0000
 XYZ=   -2.2647   -6.6134    8.9236 Q=   -0.8200 A=    0.0000 R=    0.0000 C=    0.0000
 XYZ=   -1.5718   -5.8925    8.9066 Q=    0.4100 A=    0.0000 R=    0.0000 C=    0.0000
 XYZ=   -3.1566   -6.2135    9.1345 Q=    0.4100 A=    0.0000 R=    0.0000 C=    0.0000
 XYZ=  -11.3895   -1.1171    1.8736 Q=   -0.8200 A=    0.0000 R=    0.0000 C=    0.0000
 XYZ=  -11.1674   -0.9910    0.9068 Q=    0.4100 A=    0.0000 R=    0.0000 C=    0.0000
 XYZ=  -10.6247   -1.5662    2.3355 Q=    0.4100 A=    0.0000 R=    0.0000 C=    0.0000
 XYZ=    3.3890    2.8742    9.8488 Q=   -0.8200 A=    0.0000 R=    0.0000 C=    0.0000
 XYZ=    3.9743    2.6889   10.6382 Q=    0.4100 A=    0.0000 R=    0.0000 C=    0.0000
 XYZ=    3.5324    3.8149    9.5411 Q=    0.4100 A=    0.0000 R=    0.0000 C=    0.0000
 XYZ=   -3.1181    7.4033   -9.4425 Q=   -0.8200 A=    0.0000 R=    0.0000 C=    0.0000
 XYZ=   -2.6063    8.2615   -9.4833 Q=    0.4100 A=    0.0000 R=    0.0000 C=    0.0000
 XYZ=   -2.4850    6.6336   -9.5252 Q=    0.4100 A=    0.0000 R=    0.0000 C=    0.0000
 XYZ=   -9.6033   -3.1125    4.8451 Q=   -0.8200 A=    0.0000 R=    0.0000 C=    0.0000
 XYZ=   -9.7228   -2.5169    4.0508 Q=    0.4100 A=    0.0000 R=    0.0000 C=    0.0000
 XYZ=  -10.4356   -3.6480    4.9885 Q=    0.4100 A=    0.0000 R=    0.0000 C=    0.0000
 XYZ=   11.1113   -2.5538    3.8797 Q=   -0.8200 A=    0.0000 R=    0.0000 C=    0.0000
 XYZ=   10.6049   -3.1284    3.2367 Q=    0.4100 A=    0.0000 R=    0.0000 C=    0.0000
 XYZ=   10.5769   -2.4402    4.7173 Q=    0.4100 A=    0.0000 R=    0.0000 C=    0.0000
 XYZ=    3.9550    5.0529    9.4265 Q=   -0.8200 A=    0.0000 R=    0.0000 C=    0.0000
 XYZ=    4.7164    5.5456    9.8477 Q=    0.4100 A=    0.0000 R=    0.0000 C=    0.0000
 XYZ=    4.0733    5.0423    8.4335 Q=    0.4100 A=    0.0000 R=    0.0000 C=    0.0000
 XYZ=   -1.5379   -3.8390   10.3019 Q=   -0.8200 A=    0.0000 R=    0.0000 C=    0.0000
 XYZ=   -0.9256   -4.5576    9.9720 Q=    0.4100 A=    0.0000 R=    0.0000 C=    0.0000
 XYZ=   -2.3402   -4.2554   10.7296 Q=    0.4100 A=    0.0000 R=    0.0000 C=    0.0000
 XYZ=  -11.4697    1.5477   -1.2023 Q=   -0.8200 A=    0.0000 R=    0.0000 C=    0.0000
 XYZ=  -12.4687    1.5241   -1.2404 Q=    0.4100 A=    0.0000 R=    0.0000 C=    0.0000
 XYZ=  -11.1755    2.3311   -0.6547 Q=    0.4100 A=    0.0000 R=    0.0000 C=    0.0000
 XYZ=   10.8219   -5.6439    0.4674 Q=   -0.8200 A=    0.0000 R=    0.0000 C=    0.0000
 XYZ=   10.0840   -5.6590   -0.2074 Q=    0.4100 A=    0.0000 R=    0.0000 C=    0.0000
 XYZ=   11.0534   -6.5809    0.7291 Q=    0.4100 A=    0.0000 R=    0.0000 C=    0.0000
 XYZ=    8.2922   -6.6584   -3.7040 Q=   -0.8200 A=    0.0000 R=    0.0000 C=    0.0000
 XYZ=    8.3831   -6.4525   -4.6784 Q=    0.4100 A=    0.0000 R=    0.0000 C=    0.0000
 XYZ=    8.9787   -7.3363   -3.4411 Q=    0.4100 A=    0.0000 R=    0.0000 C=    0.0000
 XYZ=    8.0789   -8.6885    3.6499 Q=   -0.8200 A=    0.0000 R=    0.0000 C=    0.0000
 XYZ=    7.4752   -7.9576    3.3315 Q=    0.4100 A=    0.0000 R=    0.0000 C=    0.0000
 XYZ=    7.7887   -8.9884    4.5587 Q=    0.4100 A=    0.0000 R=    0.0000 C=    0.0000
 XYZ=   -2.6188   -4.2493  -10.4720 Q=   -0.8200 A=    0.0000 R=    0.0000 C=    0.0000
 XYZ=   -1.7627   -4.5687  -10.0656 Q=    0.4100 A=    0.0000 R=    0.0000 C=    0.0000
 XYZ=   -2.4972   -4.1345  -11.4580 Q=    0.4100 A=    0.0000 R=    0.0000 C=    0.0000
 XYZ=    8.8449    5.0292    5.5632 Q=   -0.8200 A=    0.0000 R=    0.0000 C=    0.0000
 XYZ=    8.6537    4.1220    5.1883 Q=    0.4100 A=    0.0000 R=    0.0000 C=    0.0000
 XYZ=    8.7440    5.0068    6.5579 Q=    0.4100 A=    0.0000 R=    0.0000 C=    0.0000
 XYZ=    7.4443    6.8434    4.9407 Q=   -0.8200 A=    0.0000 R=    0.0000 C=    0.0000
 XYZ=    8.1184    6.1300    5.1323 Q=    0.4100 A=    0.0000 R=    0.0000 C=    0.0000
 XYZ=    6.9540    6.6209    4.0980 Q=    0.4100 A=    0.0000 R=    0.0000 C=    0.0000
 XYZ=    8.6475   -8.3735   -0.5699 Q=   -0.8200 A=    0.0000 R=    0.0000 C=    0.0000
 XYZ=    7.7087   -8.5482   -0.2730 Q=    0.4100 A=    0.0000 R=    0.0000 C=    0.0000
 XYZ=    9.2499   -9.0841   -0.2061 Q=    0.4100 A=    0.0000 R=    0.0000 C=    0.0000
 XYZ=   10.2577    4.3722   -2.9811 Q=   -0.8200 A=    0.0000 R=    0.0000 C=    0.0000
 XYZ=   10.8091    4.8587   -2.3033 Q=    0.4100 A=    0.0000 R=    0.0000 C=    0.0000
 XYZ=   10.1903    3.4077   -2.7257 Q=    0.4100 A=    0.0000 R=    0.0000 C=    0.0000
 XYZ=   -3.4517    5.1122   10.1411 Q=   -0.8200 A=    0.0000 R=    0.0000 C=    0.0000
 XYZ=   -3.5400    6.0988   10.0034 Q=    0.4100 A=    0.0000 R=    0.0000 C=    0.0000
 XYZ=   -3.1264    4.6857    9.2971 Q=    0.4100 A=    0.0000 R=    0.0000 C=    0.0000
 XYZ=   -6.5320   -7.6698    5.3508 Q=   -0.8200 A=    0.0000 R=    0.0000 C=    0.0000
 XYZ=   -5.9935   -7.2883    4.5994 Q=    0.4100 A=    0.0000 R=    0.0000 C=    0.0000
 XYZ=   -7.2520   -7.0244    5.6060 Q=    0.4100 A=    0.0000 R=    0.0000 C=    0.0000
 XYZ=    4.8444   -5.7066   -8.9585 Q=   -0.8200 A=    0.0000 R=    0.0000 C=    0.0000
 XYZ=    4.9553   -6.4301   -9.6399 Q=    0.4100 A=    0.0000 R=    0.0000 C=    0.0000
 XYZ=    5.0375   -4.8202   -9.3791 Q=    0.4100 A=    0.0000 R=    0.0000 C=    0.0000
 XYZ=   -8.0648   -6.9916   -2.7607 Q=   -0.8200 A=    0.0000 R=    0.0000 C=    0.0000
 XYZ=   -8.3364   -6.4592   -1.9589 Q=    0.4100 A=    0.0000 R=    0.0000 C=    0.0000
 XYZ=   -8.8065   -7.6122   -3.0155 Q=    0.4100 A=    0.0000 R=    0.0000 C=    0.0000
 XYZ=    9.2222   -5.2605    6.6916 Q=   -0.8200 A=    0.0000 R=    0.0000 C=    0.0000
 XYZ=    8.3004   -5.2162    6.3063 Q=    0.4100 A=    0.0000 R=    0.0000 C=    0.0000
 XYZ=    9.1735   -5.5873    7.6355 Q=    0.4100 A=    0.0000 R=    0.0000 C=    0.0000
 XYZ=   -0.2587   10.9767    2.5338 Q=   -0.8200 A=    0.0000 R=    0.0000 C=    0.0000
 XYZ=   -0.5705   10.0825    2.8550 Q=    0.4100 A=    0.0000 R=    0.0000 C=    0.0000
 XYZ=   -0.1035   10.9406    1.5465 Q=    0.4100 A=    0.0000 R=    0.0000 C=    0.0000
 XYZ=   -5.9192   -0.9595  -10.7010 Q=   -0.8200 A=    0.0000 R=    0.0000 C=    0.0000
 XYZ=   -6.5613   -0.1930  -10.7141 Q=    0.4100 A=    0.0000 R=    0.0000 C=    0.0000
 XYZ=   -6.4159   -1.8131  -10.8588 Q=    0.4100 A=    0.0000 R=    0.0000 C=    0.0000
 XYZ=   -3.5983   -8.3168   -6.1239 Q=   -0.8200 A=    0.0000 R=    0.0000 C=    0.0000
 XYZ=   -3.8961   -8.5270   -7.0551 Q=    0.4100 A=    0.0000 R=    0.0000 C=    0.0000
 XYZ=   -4.3812   -8.0033   -5.5864 Q=    0.4100 A=    0.0000 R=    0.0000 C=    0.0000
 XYZ=   -7.6270    0.6583  -10.4819 Q=   -0.8200 A=    0.0000 R=    0.0000 C=    0.0000
 XYZ=   -7.9420    0.2380   -9.6309 Q=    0.4100 A=    0.0000 R=    0.0000 C=    0.0000
 XYZ=   -8.4154    0.8815  -11.0551 Q=    0.4100 A=    0.0000 R=    0.0000 C=    0.0000
 XYZ=   -4.1845   10.4627   -6.4445 Q=   -0.8200 A=    0.0000 R=    0.0000 C=    0.0000
 XYZ=   -3.7451    9.8892   -5.7531 Q=    0.4100 A=    0.0000 R=    0.0000 C=    0.0000
 XYZ=   -3.6714   11.3151   -6.5455 Q=    0.4100 A=    0.0000 R=    0.0000 C=    0.0000
 XYZ=   -8.6964    7.5274    3.3106 Q=   -0.8200 A=    0.0000 R=    0.0000 C=    0.0000
 XYZ=   -8.9929    6.5823    3.4480 Q=    0.4100 A=    0.0000 R=    0.0000 C=    0.0000
 XYZ=   -8.4974    7.9464    4.1965 Q=    0.4100 A=    0.0000 R=    0.0000 C=    0.0000
 XYZ=    0.1876   -8.4602   -7.7535 Q=   -0.8200 A=    0.0000 R=    0.0000 C=    0.0000
 XYZ=   -0.0714   -8.7541   -6.8333 Q=    0.4100 A=    0.0000 R=    0.0000 C=    0.0000
 XYZ=    1.1844   -8.4543   -7.8333 Q=    0.4100 A=    0.0000 R=    0.0000 C=    0.0000
 XYZ=   -8.4787   -2.2949   -8.5391 Q=   -0.8200 A=    0.0000 R=    0.0000 C=    0.0000
 XYZ=   -9.4095   -1.9886   -8.7387 Q=    0.4100 A=    0.0000 R=    0.0000 C=    0.0000
 XYZ=   -8.3822   -3.2567   -8.7954 Q=    0.4100 A=    0.0000 R=    0.0000 C=    0.0000
 XYZ=  -11.2963    2.7068    3.6720 Q=   -0.8200 A=    0.0000 R=    0.0000 C=    0.0000
 XYZ=  -11.9922    2.7940    4.3849 Q=    0.4100 A=    0.0000 R=    0.0000 C=    0.0000
 XYZ=  -11.0826    1.7401    3.5313 Q=    0.4100 A=    0.0000 R=    0.0000 C=    0.0000
 XYZ=   -9.6549   -6.8220    2.1062 Q=   -0.8200 A=    0.0000 R=    0.0000 C=    0.0000
 XYZ=  -10.3661   -6.9121    1.4090 Q=    0.4100 A=    0.0000 R=    0.0000 C=    0.0000
 XYZ=   -9.0764   -6.0348    1.8924 Q=    0.4100 A=    0.0000 R=    0.0000 C=    0.0000
 XYZ=   -3.8981   -9.6082    1.3788 Q=   -0.8200 A=    0.0000 R=    0.0000 C=    0.0000
 XYZ=   -4.8458   -9.4444    1.1048 Q=    0.4100 A=    0.0000 R=    0.0000 C=    0.0000
 XYZ=   -3.5312  -10.3825    0.8632 Q=    0.4100 A=    0.0000 R=    0.0000 C=    0.0000
 XYZ=    9.2992    7.1014   -1.7305 Q=   -0.8200 A=    0.0000 R=    0.0000 C=    0.0000
 XYZ=    9.3737    7.5094   -2.6404 Q=    0.4100 A=    0.0000 R=    0.0000 C=    0.0000
 XYZ=    8.3402    6.8966   -1.5346 Q=    0.4100 A=    0.0000 R=    0.0000 C=    0.0000
 XYZ=   -6.3448    9.9914    0.1188 Q=   -0.8200 A=    0.0000 R=    0.0000 C=    0.0000
 XYZ=   -6.7575   10.7304   -0.4139 Q=    0.4100 A=    0.0000 R=    0.0000 C=    0.0000
 XYZ=   -7.0598    9.3645    0.4286 Q=    0.4100 A=    0.0000 R=    0.0000 C=    0.0000
 XYZ=    7.4116    8.2184   -5.4474 Q=   -0.8200 A=    0.0000 R=    0.0000 C=    0.0000
 XYZ=    6.6287    7.5996   -5.3823 Q=    0.4100 A=    0.0000 R=    0.0000 C=    0.0000
 XYZ=    8.0352    8.0483   -4.6844 Q=    0.4100 A=    0.0000 R=    0.0000 C=    0.0000
 XYZ=   -9.8120    4.4693    6.1693 Q=   -0.8200 A=    0.0000 R=    0.0000 C=    0.0000
 XYZ=   -9.3227    3.5978    6.1356 Q=    0.4100 A=    0.0000 R=    0.0000 C=    0.0000
 XYZ=   -9.2564    5.1450    6.6539 Q=    0.4100 A=    0.0000 R=    0.0000 C=    0.0000
 XYZ=    1.1419   -2.3315  -12.4785 Q=   -0.8200 A=    0.0000 R=    0.0000 C=    0.0000
 XYZ=    1.7562   -1.7464  -11.9490 Q=    0.4100 A=    0.0000 R=    0.0000 C=    0.0000
 XYZ=    1.6244   -2.6804  -13.2819 Q=    0.4100 A=    0.0000 R=    0.0000 C=    0.0000
 XYZ=    2.9626   -0.7170   12.0757 Q=   -0.8200 A=    0.0000 R=    0.0000 C=    0.0000
 XYZ=    3.3608   -1.0676   11.2280 Q=    0.4100 A=    0.0000 R=    0.0000 C=    0.0000
 XYZ=    3.6663   -0.2396   12.6020 Q=    0.4100 A=    0.0000 R=    0.0000 C=    0.0000
 XYZ=   -4.4094   -5.4553    9.1192 Q=   -0.8200 A=    0.0000 R=    0.0000 C=    0.0000
 XYZ=   -5.0016   -6.2610    9.1154 Q=    0.4100 A=    0.0000 R=    0.0000 C=    0.0000
 XYZ=   -4.3254   -5.1078   10.0531 Q=    0.4100 A=    0.0000 R=    0.0000 C=    0.0000
 XYZ=    0.4141    1.7407   12.4775 Q=   -0.8200 A=    0.0000 R=    0.0000 C=    0.0000
 XYZ=    0.5619    2.0222   11.5293 Q=    0.4100 A=    0.0000 R=    0.0000 C=    0.0000
 XYZ=    0.6095    0.7643   12.5695 Q=    0.4100 A=    0.0000 R=    0.0000 C=    0.0000
 XYZ=  -10.9529    1.6122   -7.9673 Q=   -0.8200 A=    0.0000 R=    0.0000 C=    0.0000
 XYZ=  -11.0801    1.8590   -8.9280 Q=    0.4100 A=    0.0000 R=    0.0000 C=    0.0000
 XYZ=  -10.1743    2.1166   -7.5938 Q=    0.4100 A=    0.0000 R=    0.0000 C=    0.0000
 XYZ=    9.6642   -4.3785   -6.1917 Q=   -0.8200 A=    0.0000 R=    0.0000 C=    0.0000
 XYZ=   10.2283   -4.1169   -5.4085 Q=    0.4100 A=    0.0000 R=    0.0000 C=    0.0000
 XYZ=    9.3040   -3.5563   -6.6325 Q=    0.4100 A=    0.0000 R=    0.0000 C=    0.0000
 XYZ=   12.6405    1.1885    2.5890 Q=   -0.8200 A=    0.0000 R=    0.0000 C=    0.0000
 XYZ=   12.7178    0.2207    2.8288 Q=    0.4100 A=    0.0000 R=    0.0000 C=    0.0000
 XYZ=   11.8716    1.3163    1.9626 Q=    0.4100 A=    0.0000 R=    0.0000 C=    0.0000
 XYZ=   10.2846   -2.9853    6.2367 Q=   -0.8200 A=    0.0000 R=    0.0000 C=    0.0000
 XYZ=    9.6838   -3.7654    6.4117 Q=    0.4100 A=    0.0000 R=    0.0000 C=    0.0000
 XYZ=   11.1964   -3.1792    6.5987 Q=    0.4100 A=    0.0000 R=    0.0000 C=    0.0000
 XYZ=   -8.9841    0.2887    8.1740 Q=   -0.8200 A=    0.0000 R=    0.0000 C=    0.0000
 XYZ=   -8.7788   -0.4092    7.4879 Q=    0.4100 A=    0.0000 R=    0.0000 C=    0.0000
 XYZ=   -8.3544    1.0580    8.0657 Q=    0.4100 A=    0.0000 R=    0.0000 C=    0.0000
 XYZ=   -6.0004   -5.8902   -8.5718 Q=   -0.8200 A=    0.0000 R=    0.0000 C=    0.0000
 XYZ=   -5.3426   -6.0109   -9.3153 Q=    0.4100 A=    0.0000 R=    0.0000 C=    0.0000
 XYZ=   -6.1605   -6.7691   -8.1225 Q=    0.4100 A=    0.0000 R=    0.0000 C=    0.0000
 XYZ=   -8.2029   -6.2571    5.9255 Q=   -0.8200 A=    0.0000 R=    0.0000 C=    0.0000
 XYZ=   -8.9779   -6.5327    5.3567 Q=    0.4100 A=    0.0000 R=    0.0000 C=    0.0000
 XYZ=   -7.9773   -5.3005    5.7405 Q=    0.4100 A=    0.0000 R=    0.0000 C=    0.0000
 XYZ=   -5.1404   10.4236    1.9671 Q=   -0.8200 A=    0.0000 R=    0.0000 C=    0.0000
 XYZ=   -5.6628   10.9812    2.6123 Q=    0.4100 A=    0.0000 R=    0.0000 C=    0.0000
 XYZ=   -5.6996   10.2368    1.1593 Q=    0.4100 A=    0.0000 R=    0.0000 C=    0.0000
 XYZ=   -6.7182    4.6830    9.0082 Q=   -0.8200 A=    0.0000 R=    0.0000 C=    0.0000
 XYZ=   -7.2217    5.5301    9.1783 Q=    0.4100 A=    0.0000 R=    0.0000 C=    0.0000
 XYZ=   -5.8739    4.8906    8.5142 Q=    0.4100 A=    0.0000 R=    0.0000 C=    0.0000
 XYZ=   -0.5972   -2.4251   12.0423 Q=   -0.8200 A=    0.0000 R=    0.0000 C=    0.0000
 XYZ=   -1.1032   -3.0501   11.4478 Q=    0.4100 A=    0.0000 R=    0.0000 C=    0.0000
 XYZ=   -1.2252   -1.7475   12.4251 Q=    0.4100 A=    0.0000 R=    0.0000 C=    0.0000
 XYZ=   10.4760   -0.6556    6.7632 Q=   -0.8200 A=    0.0000 R=    0.0000 C=    0.0000
 XYZ=   11.4335   -0.4775    6.5363 Q=    0.4100 A=    0.0000 R=    0.0000 C=    0.0000
 XYZ=   10.2281   -1.5767    6.4627 Q=    0.4100 A=    0.0000 R=    0.0000 C=    0.0000
 XYZ=    8.2138   -6.1892   -6.0646 Q=   -0.8200 A=    0.0000 R=    0.0000 C=    0.0000
 XYZ=    8.7897   -5.3771   -6.1585 Q=    0.4100 A=    0.0000 R=    0.0000 C=    0.0000
 XYZ=    8.6763   -6.9750   -6.4752 Q=    0.4100 A=    0.0000 R=    0.0000 C=    0.0000
 XYZ=   -0.7440   -6.9035  -10.9283 Q=   -0.8200 A=    0.0000 R=    0.0000 C=    0.0000
 XYZ=   -1.1866   -7.5760  -10.3351 Q=    0.4100 A=    0.0000 R=    0.0000 C=    0.0000
 XYZ=   -0.6094   -6.0509  -10.4233 Q=    0.4100 A=    0.0000 R=    0.0000 C=    0.0000
 XYZ=   -1.8020   12.0317   -0.3472 Q=   -0.8200 A=    0.0000 R=    0.0000 C=    0.0000
 XYZ=   -1.1642   11.2746   -0.2061 Q=    0.4100 A=    0.0000 R=    0.0000 C=    0.0000
 XYZ=   -2.5956   11.9146    0.2499 Q=    0.4100 A=    0.0000 R=    0.0000 C=    0.0000
 XYZ=   -8.2594    8.9259    1.1146 Q=   -0.8200 A=    0.0000 R=    0.0000 C=    0.0000
 XYZ=   -8.9190    9.6362    0.8685 Q=    0.4100 A=    0.0000 R=    0.0000 C=    0.0000
 XYZ=   -8.6048    8.4067    1.8963 Q=    0.4100 A=    0.0000 R=    0.0000 C=    0.0000
 XYZ=   -6.3505   -8.8250    0.1392 Q=   -0.8200 A=    0.0000 R=    0.0000 C=    0.0000
 XYZ=   -7.0633   -8.8392    0.8405 Q=    0.4100 A=    0.0000 R=    0.0000 C=    0.0000
 XYZ=   -6.4896   -9.5875   -0.4928 Q=    0.4100 A=    0.0000 R=    0.0000 C=    0.0000
 XYZ=   -1.6768    2.4107   11.5051 Q=   -0.8200 A=    0.0000 R=    0.0000 C=    0.0000
 XYZ=   -0.8235    2.1881   11.9767 Q=    0.4100 A=    0.0000 R=    0.0000 C=    0.0000
 XYZ=   -1.8461    3.3942   11.5690 Q=    0.4100 A=    0.0000 R=    0.0000 C=    0.0000
 XYZ=    0.0373    6.7866  -11.6933 Q=   -0.8200 A=    0.0000 R=    0.0000 C=    0.0000
 XYZ=   -0.1272    7.7728  -11.7156 Q=    0.4100 A=    0.0000 R=    0.0000 C=    0.0000
 XYZ=   -0.4403    6.3867  -10.9110 Q=    0.4100 A=    0.0000 R=    0.0000 C=    0.0000
[...]
    39  O   -0.003924   0.000023   0.000000   0.000000   0.000000   0.000000
    40  H   -0.000148  -0.000016   0.000000   0.000000   0.000000   0.000000
    41  H   -0.000198   0.000017   0.000000   0.000000   0.000000   0.000000
    42  O    0.000000   0.000000   0.000000   0.000000   0.000000   0.000000
    43  H    0.000000   0.000000   0.000000   0.000000   0.000000   0.000000
    44  H    0.000000   0.000000   0.000000   0.000000   0.000000   0.000000
    45  O    0.000492   0.000444   0.000884   0.000004   0.000010   0.000000
    46  H    0.000068   0.000009  -0.000108   0.000000   0.000000   0.000000
    47  H    0.000034  -0.000179  -0.000420  -0.000002   0.000002   0.000000
    48  O    0.000000   0.000000   0.000001   0.000003  -0.000017   0.000000
    49  H    0.000000   0.000000   0.000000   0.000000   0.000000   0.000000
    50  H    0.000000   0.000000   0.000002   0.000000   0.000000   0.000000
              31         32         33         34         35         36
     1  C    0.000047  -0.000015   0.009699  -0.008112  -0.000786  -0.000778
     2  H    0.000000   0.000000   0.000139  -0.000002  -0.000007   0.000389
     3  H    0.000000   0.000000  -0.000308   0.000007   0.000005  -0.000124
     4  C   -0.000298  -0.001540  -0.029497   0.006491   0.003206   0.005889
     5  H   -0.000001   0.000004   0.000283  -0.000003   0.000008   0.000000
     6  C    0.000117   0.001067   0.011213  -0.000588  -0.001409  -0.001581
     7  H    0.000000  -0.000001  -0.000102   0.000000   0.000002   0.000000
     8  O    0.000000   0.000000   0.000271   0.000011  -0.000017   0.000039
     9  O    0.000000   0.000000  -0.000002   0.000000   0.000000   0.000000
    10  H    0.000000   0.000000   0.000001   0.000000   0.000000   0.000000
    11  H    0.000000   0.000000   0.000000   0.000000   0.000000   0.000000
    12  O    0.002432   0.001826  -0.078223   0.000598   0.042026  -0.000004
    13  H   -0.000102   0.000031   0.000411  -0.000043  -0.001359   0.000001
    14  H    0.000537  -0.003000   0.003516   0.000055  -0.000627   0.000000
    15  O    0.000000   0.000001  -0.077589   0.002538   0.001421  -0.000009
    16  H    0.000000   0.000000   0.040474  -0.001872  -0.000397   0.000006
    17  H    0.000000   0.000000   0.002112   0.000025  -0.000113   0.000000
    18  O    0.000000   0.000000   0.000001  -0.000001   0.000000  -0.063411
    19  H    0.000000   0.000000   0.000000   0.000000   0.000000   0.002344
    20  H    0.000000   0.000000   0.000000   0.000000   0.000000  -0.052410
    21  O    0.000000   0.000000  -0.003104   0.000173  -0.000034  -0.001774
    22  H    0.000000   0.000000   0.000211  -0.000019   0.000001  -0.000334
    23  H    0.000000   0.000000   0.000647  -0.000039   0.000006   0.000024
    24  O    0.000000   0.000000   0.000000   0.000000   0.000000   0.000000
    25  H    0.000000   0.000000   0.000000   0.000000   0.000000   0.000000
    26  H    0.000000   0.000000   0.000000   0.000000   0.000000   0.000000
    27  O    0.000000   0.000000   0.000001   0.000000   0.000000   0.000003
    28  H    0.000000   0.000000   0.000000   0.000000   0.000000   0.000000
    29  H    0.000000   0.000000   0.000000   0.000000   0.000000   0.000002
    30  O    0.217273   0.208537  -0.001402   0.000027  -0.000040   0.000000
    31  H    0.160385  -0.003867   0.000005   0.000000   0.000002   0.000000
    32  H   -0.003867   0.181594   0.000028   0.000000  -0.000016   0.000000
    33  O    0.000005   0.000028   8.926152   0.219211   0.172209   0.000016
    34  H    0.000000   0.000000   0.219211   0.205407  -0.008829  -0.000004
    35  H    0.000002  -0.000016   0.172209  -0.008829   0.186160   0.000000
    36  O    0.000000   0.000000   0.000016  -0.000004   0.000000   9.018676
    37  H    0.000000   0.000000   0.000000   0.000000   0.000000   0.196705
    38  H    0.000000   0.000000   0.000000   0.000000   0.000000   0.208399
    39  O    0.000000   0.000000   0.000000   0.000000   0.000000   0.000000
    40  H    0.000000   0.000000   0.000000   0.000000   0.000000   0.000000
    41  H    0.000000   0.000000   0.000000   0.000000   0.000000   0.000000
    42  O    0.000000   0.000000  -0.000002   0.000000   0.000000  -0.003302
    43  H    0.000000   0.000000   0.000000   0.000000   0.000000   0.000095
    44  H    0.000000   0.000000   0.000000   0.000000   0.000000  -0.000017
    45  O    0.000000   0.000000   0.000001   0.000000   0.000000   0.000000
    46  H    0.000000   0.000000   0.000000   0.000000   0.000000   0.000000
    47  H    0.000000   0.000000   0.000000   0.000000   0.000000   0.000000
    48  O    0.000000   0.000000   0.000438   0.000005  -0.000005  -0.080351
    49  H    0.000000   0.000000   0.000186  -0.000032   0.000001   0.000176
    50  H    0.000000   0.000000  -0.000011   0.000001   0.000000   0.028344
              37         38         39         40         41         42
     1  C   -0.000026  -0.000529   0.000652  -0.000001  -0.000194   0.007365
     2  H    0.000007  -0.000019   0.000000   0.000000   0.000000  -0.000046
     3  H   -0.000001   0.000002   0.000000   0.000000   0.000000  -0.000202
     4  C    0.000134  -0.000217  -0.008702   0.000157   0.001558  -0.002835
     5  H    0.000000   0.000000   0.000001   0.000000  -0.000001  -0.000011
     6  C   -0.000021   0.000143  -0.000274   0.000184  -0.001859  -0.001202
     7  H    0.000000   0.000000  -0.000024   0.000012  -0.000520   0.000000
     8  O    0.000000   0.000005  -0.000368  -0.000016   0.000355   0.000003
     9  O    0.000000   0.000000  -0.029293   0.000644   0.038866   0.000000
    10  H    0.000000   0.000000   0.000057   0.000038  -0.000158   0.000000
    11  H    0.000000   0.000000  -0.002430  -0.000119   0.000475   0.000000
    12  O    0.000000   0.000000  -0.000002   0.000000   0.000000  -0.000005
    13  H    0.000000   0.000000   0.000000   0.000000   0.000000   0.000000
    14  H    0.000000   0.000000   0.000000   0.000000   0.000000   0.000000
    15  O    0.000000  -0.000001   0.000002   0.000000  -0.000001   0.000000
    16  H    0.000000   0.000000   0.000000   0.000000   0.000000   0.000000
    17  H    0.000000   0.000000   0.000000   0.000000   0.000000   0.000000
    18  O   -0.003337  -0.003959   0.000000   0.000000   0.000000  -0.109363
    19  H   -0.000020   0.000164   0.000000   0.000000   0.000000  -0.028406
    20  H   -0.002080   0.001666   0.000000   0.000000   0.000000   0.002044
    21  O   -0.000015   0.000106   0.000000   0.000000   0.000000   0.000001
    22  H    0.000004  -0.000019   0.000000   0.000000   0.000000   0.000000
    23  H    0.000000  -0.000001   0.000000   0.000000   0.000000   0.000000
    24  O    0.000000   0.000000  -0.002506   0.000050  -0.000128   0.000000
    25  H    0.000000   0.000000  -0.003924  -0.000148  -0.000198   0.000000
    26  H    0.000000   0.000000   0.000023  -0.000016   0.000017   0.000000
    27  O    0.000000   0.000000   0.000000   0.000000   0.000000   0.000000
    28  H    0.000000   0.000000   0.000000   0.000000   0.000000   0.000000
    29  H    0.000000   0.000000   0.000000   0.000000   0.000000   0.000000
    30  O    0.000000   0.000000   0.000000   0.000000   0.000000   0.000000
    31  H    0.000000   0.000000   0.000000   0.000000   0.000000   0.000000
    32  H    0.000000   0.000000   0.000000   0.000000   0.000000   0.000000
    33  O    0.000000   0.000000   0.000000   0.000000   0.000000  -0.000002
    34  H    0.000000   0.000000   0.000000   0.000000   0.000000   0.000000
    35  H    0.000000   0.000000   0.000000   0.000000   0.000000   0.000000
    36  O    0.196705   0.208399   0.000000   0.000000   0.000000  -0.003302
    37  H    0.144604  -0.009927   0.000000   0.000000   0.000000  -0.000022
    38  H   -0.009927   0.174562   0.000000   0.000000   0.000000  -0.000024
    39  O    0.000000   0.000000   8.833679   0.218921   0.174073   0.000000
    40  H    0.000000   0.000000   0.218921   0.217874  -0.008190   0.000000
    41  H    0.000000   0.000000   0.174073  -0.008190   0.185382   0.000000
    42  O   -0.000022  -0.000024   0.000000   0.000000   0.000000   8.868543
    43  H    0.000002   0.000000   0.000000   0.000000   0.000000   0.193848
    44  H    0.000000   0.000001   0.000000   0.000000   0.000000   0.224818
    45  O    0.000000   0.000000  -0.002184  -0.000396   0.000271   0.000000
    46  H    0.000000   0.000000   0.000031  -0.000001  -0.000004   0.000000
    47  H    0.000000   0.000000   0.000035   0.000001  -0.000002   0.000000
    48  O   -0.001107  -0.001118   0.000000   0.000000   0.000000  -0.000072
    49  H   -0.000110   0.000086   0.000000   0.000000   0.000000   0.000000
    50  H   -0.001114  -0.000883   0.000000   0.000000   0.000000   0.000021
              43         44         45         46         47         48
     1  C   -0.000344   0.003127  -0.000550   0.000012   0.000045  -0.004959
     2  H    0.000000   0.000001   0.000000   0.000000   0.000000   0.000559
     3  H    0.000000   0.000026   0.000000   0.000000   0.000000  -0.000066
     4  C    0.000237  -0.002689  -0.000387   0.000020  -0.000243  -0.000091
     5  H    0.000000   0.000001   0.000000   0.000000   0.000000  -0.000001
     6  C   -0.000025   0.000387  -0.000254  -0.000097  -0.000852  -0.000450
     7  H    0.000000   0.000000   0.000084   0.000002   0.000002   0.000000
     8  O    0.000000   0.000000  -0.001064  -0.000033   0.000157  -0.000263
     9  O    0.000000   0.000000  -0.101178   0.001447  -0.000676   0.000000
    10  H    0.000000   0.000000  -0.000475  -0.000131  -0.000217   0.000000
    11  H    0.000000   0.000000   0.024150  -0.000967   0.000819   0.000000
    12  O    0.000000   0.000000  -0.000002   0.000000   0.000000  -0.000034
    13  H    0.000000   0.000000   0.000000   0.000000   0.000000  -0.000002
    14  H    0.000000   0.000000   0.000000   0.000000   0.000000   0.000000
    15  O    0.000000   0.000000   0.000012   0.000008   0.000003   0.000000
    16  H    0.000000   0.000000   0.000001   0.000000   0.000000  -0.000001
    17  H    0.000000   0.000000  -0.000002  -0.000001   0.000000  -0.000012
    18  O   -0.001261   0.003766   0.000000   0.000000   0.000000  -0.001744
    19  H   -0.000061   0.004135   0.000000   0.000000   0.000000   0.000118
    20  H   -0.000140  -0.000025   0.000000   0.000000   0.000000  -0.003737
    21  O    0.000000   0.000000   0.000004   0.000000   0.000000  -0.059733
    22  H    0.000000   0.000000   0.000000   0.000000   0.000000  -0.000860
    23  H    0.000000   0.000000  -0.000001   0.000000   0.000000   0.002255
    24  O    0.000000   0.000000  -0.026946   0.000902  -0.002256   0.000000
    25  H    0.000000   0.000000   0.000492   0.000068   0.000034   0.000000
    26  H    0.000000   0.000000   0.000444   0.000009  -0.000179   0.000000
    27  O    0.000000   0.000000   0.000884  -0.000108  -0.000420   0.000001
    28  H    0.000000   0.000000   0.000004   0.000000  -0.000002   0.000003
    29  H    0.000000   0.000000   0.000010   0.000000   0.000002  -0.000017
    30  O    0.000000   0.000000   0.000000   0.000000   0.000000   0.000000
    31  H    0.000000   0.000000   0.000000   0.000000   0.000000   0.000000
    32  H    0.000000   0.000000   0.000000   0.000000   0.000000   0.000000
    33  O    0.000000   0.000000   0.000001   0.000000   0.000000   0.000438
    34  H    0.000000   0.000000   0.000000   0.000000   0.000000   0.000005
    35  H    0.000000   0.000000   0.000000   0.000000   0.000000  -0.000005
    36  O    0.000095  -0.000017   0.000000   0.000000   0.000000  -0.080351
    37  H    0.000002   0.000000   0.000000   0.000000   0.000000  -0.001107
    38  H    0.000000   0.000001   0.000000   0.000000   0.000000  -0.001118
    39  O    0.000000   0.000000  -0.002184   0.000031   0.000035   0.000000
    40  H    0.000000   0.000000  -0.000396  -0.000001   0.000001   0.000000
    41  H    0.000000   0.000000   0.000271  -0.000004  -0.000002   0.000000
    42  O    0.193848   0.224818   0.000000   0.000000   0.000000  -0.000072
    43  H    0.132064  -0.006865   0.000000   0.000000   0.000000  -0.000001
    44  H   -0.006865   0.280608   0.000000   0.000000   0.000000   0.000000
    45  O    0.000000   0.000000   8.883795   0.205733   0.198434   0.000000
    46  H    0.000000   0.000000   0.205733   0.173854  -0.006614   0.000000
    47  H    0.000000   0.000000   0.198434  -0.006614   0.157638   0.000000
    48  O   -0.000001   0.000000   0.000000   0.000000   0.000000   9.031095
    49  H    0.000000   0.000000   0.000000   0.000000   0.000000   0.208439
    50  H    0.000000   0.000000   0.000000   0.000000   0.000000   0.154578
              49         50
     1  C   -0.001052   0.000259
     2  H   -0.000012   0.000010
     3  H    0.000002   0.000000
     4  C    0.000707   0.000046
     5  H    0.000000   0.000000
     6  C   -0.000108   0.000134
     7  H    0.000000   0.000000
     8  O    0.000007  -0.000013
     9  O    0.000000   0.000000
    10  H    0.000000   0.000000
    11  H    0.000000   0.000000
    12  O   -0.000006   0.000001
    13  H    0.000000   0.000000
    14  H    0.000000   0.000000
    15  O   -0.000047  -0.000009
    16  H   -0.000006   0.000000
    17  H    0.000000   0.000000
    18  O    0.000007  -0.000075
    19  H    0.000000   0.000008
    20  H    0.000024   0.000259
    21  O    0.002270   0.000864
    22  H   -0.000017   0.001356
    23  H   -0.000076  -0.000110
    24  O    0.000000   0.000000
    25  H    0.000000   0.000000
    26  H    0.000000   0.000000
    27  O    0.000000   0.000002
    28  H    0.000000   0.000000
    29  H    0.000000   0.000000
    30  O    0.000000   0.000000
    31  H    0.000000   0.000000
    32  H    0.000000   0.000000
    33  O    0.000186  -0.000011
    34  H   -0.000032   0.000001
    35  H    0.000001   0.000000
    36  O    0.000176   0.028344
    37  H   -0.000110  -0.001114
    38  H    0.000086  -0.000883
    39  O    0.000000   0.000000
    40  H    0.000000   0.000000
    41  H    0.000000   0.000000
    42  O    0.000000   0.000021
    43  H    0.000000   0.000000
    44  H    0.000000   0.000000
    45  O    0.000000   0.000000
    46  H    0.000000   0.000000
    47  H    0.000000   0.000000
    48  O    0.208439   0.154578
    49  H    0.236919  -0.007216
    50  H   -0.007216   0.189954
 Mulliken charges:
               1
     1  C   -0.528966
     2  H    0.269737
     3  H    0.217641
     4  C   -0.217352
     5  H    0.224313
     6  C    0.190839
     7  H    0.170762
     8  O   -0.292476
     9  O   -1.369788
    10  H    0.535793
    11  H    0.670770
    12  O   -1.079315
    13  H    0.473180
    14  H    0.625837
    15  O   -1.119096
    16  H    0.608865
    17  H    0.506072
    18  O   -1.222668
    19  H    0.606165
    20  H    0.590569
    21  O   -1.255297
    22  H    0.603848
    23  H    0.636616
    24  O   -1.260867
    25  H    0.632124
    26  H    0.630896
    27  O   -1.203708
    28  H    0.613092
    29  H    0.592589
    30  O   -1.213856
    31  H    0.623471
    32  H    0.615352
    33  O   -1.196986
    34  H    0.584995
    35  H    0.608591
    36  O   -1.257011
    37  H    0.676324
    38  H    0.631564
    39  O   -1.177768
    40  H    0.571006
    41  H    0.610258
    42  O   -1.151151
    43  H    0.682451
    44  H    0.492725
    45  O   -1.180881
    46  H    0.625870
    47  H    0.654291
    48  O   -1.242868
    49  H    0.559855
    50  H    0.633592
 Sum of Mulliken charges =   0.00000
 Mulliken charges with hydrogens summed into heavy atoms:
               1
     1  C   -0.041587
     4  C    0.006961
     6  C    0.361600
     8  O   -0.292476
     9  O   -0.163226
    12  O    0.019702
    15  O   -0.004160
    18  O   -0.025933
    21  O   -0.014833
    24  O    0.002153
    27  O    0.001974
    30  O    0.024967
    33  O   -0.003400
    36  O    0.050878
    39  O    0.003496
    42  O    0.024025
    45  O    0.099280
    48  O   -0.049421
 Electronic spatial extent (au):  <R**2>=          12083.9181
 Charge=              0.0000 electrons
 Dipole moment (field-independent basis, Debye):
    X=            -11.0815    Y=             13.7586    Z=             -1.3980  Tot=             17.7216
 Quadrupole moment (field-independent basis, Debye-Ang):
   XX=            -46.5207   YY=            -91.2508   ZZ=           -147.9856
   XY=            -13.9743   XZ=            -34.7651   YZ=            -18.0081
 Traceless Quadrupole moment (field-independent basis, Debye-Ang):
   XX=             48.7317   YY=              4.0016   ZZ=            -52.7332
   XY=            -13.9743   XZ=            -34.7651   YZ=            -18.0081
 Octapole moment (field-independent basis, Debye-Ang**2):
  XXX=           -450.9375  YYY=            361.3480  ZZZ=            -51.5168  XYY=           -103.8710
  XXY=            -70.2704  XXZ=              6.0110  XZZ=             78.7526  YZZ=             75.8110
  YYZ=             12.7697  XYZ=            -51.2325
 Hexadecapole moment (field-independent basis, Debye-Ang**3):
 XXXX=          -3478.0358 YYYY=          -2370.3426 ZZZZ=          -3038.7415 XXXY=           -745.0548
 XXXZ=           -630.7658 YYYX=            490.3943 YYYZ=           -550.4757 ZZZX=             50.7206
 ZZZY=            -67.2287 XXYY=          -1960.0959 XXZZ=          -1325.6726 YYZZ=          -1114.3017
 XXYZ=            -12.8915 YYXZ=           -632.8517 ZZXY=           -437.5894
 N-N= 1.084369690891D+03 E-N=-6.135886180806D+03  KE= 1.248880764527D+03
 Leave Link  601 at Fri Sep 14 18:25:42 2018, MaxMem=    33554432 cpu:         2.1
 (Enter /usr/local/pacerepov1/gaussian/G09D01LINDA/g09/l9999.exe)

 Test job not archived.
 1\1\GINC-RICH133-B16-6-R\SP\RLC-wPBE TD-FC\6-31+G(d)\C3H32O15\ROOT\14-
 Sep-2018\0\\#p td=(nstates=15)/6-31+g(d) lc-wpbe charge\\Acroleina in 
 Water\\0,1\C,0,0.485154,0.480443,-1.430142\H,0,1.461403,0.187773,-1.05
 5732\H,0,0.429244,0.878853,-2.437062\C,0,-0.605127,0.346563,-0.658432\
 H,0,-1.591686,0.632893,-1.012412\C,0,-0.508516,-0.199107,0.712798\H,0,
 -1.458487,-0.272107,1.272438\O,0,0.544883,-0.561317,1.236519\O,0,-1.20
 8503,-1.7824,3.277601\H,0,-0.802953,-1.28362,2.511601\H,0,-0.708733,-1
 .56806,4.11685\O,0,-1.019623,3.56264,-0.602409\H,0,-0.757563,2.85089,-
 1.254149\H,0,-2.016783,3.626091,-0.561289\O,0,2.197707,2.093081,1.7987
 01\H,0,1.818207,2.650341,1.060111\H,0,1.528487,2.01931,2.538111\O,0,2.
 575197,-1.12174,-4.07737\H,0,2.133167,-0.58044,-4.792689\H,0,3.242097,
 -0.55439,-3.594269\O,0,4.506807,1.45962,1.239711\H,0,4.609567,1.521631
 ,0.246921\H,0,3.548967,1.60848,1.485551\O,0,0.249267,-3.8243,3.505391\
 H,0,-0.453073,-3.160759,3.247531\H,0,-0.171183,-4.5717,4.019771\O,0,3.
 954447,-1.394729,3.757281\H,0,4.332037,-0.53191,4.093431\H,0,4.251167,
 -1.543319,2.813921\O,0,-3.523833,3.827661,-0.536289\H,0,-4.446533,3.50
 29,-0.744129\H,0,-3.536643,4.34117,0.321701\O,0,1.183917,3.83669,0.294
 001\H,0,1.657307,4.26847,-0.473769\H,0,0.197887,3.850141,0.127701\O,0,
 4.353647,-0.233779,-2.849969\H,0,4.994967,-0.241829,-3.617219\H,0,4.54
 3867,-1.00967,-2.248449\O,0,-3.705013,-2.304029,3.333961\H,0,-3.699533
 ,-2.956409,4.09186\H,0,-2.774683,-1.97605,3.169791\O,0,1.335237,-0.064
 369,-5.745019\H,0,1.692227,0.486681,-6.49931\H,0,0.352747,0.0963,-5.65
 0819\O,0,-0.063543,-1.52661,5.243061\H,0,0.203687,-0.71875,5.768381\H,
 0,0.750617,-1.95014,4.84585\O,0,4.778417,1.39476,-1.250049\H,0,4.61215
 7,2.303751,-1.632389\H,0,4.652557,0.70507,-1.963199\\Version=EM64L-G09
 RevD.01\State=1-A\HF=-1758.9068493\RMSD=3.868e-09\PG=C01 [X(C3H32O15)]
 \\@


 ALTHOUGH J.J. COULD DIAGNOSE THE FAULTS OF AN
 APPARATUS WITH UNCANNY ACCURACY, IT WAS JUST AS
 WELL NOT TO LET HIM HANDLE IT.
   -- GEORGE THOMPSON, ABOUT HIS FATHER
 Job cpu time:       0 days  3 hours 18 minutes 57.2 seconds.
 File lengths (MBytes):  RWF=    792 Int=      0 D2E=      0 Chk=     96 Scr=      2
 Normal termination of Gaussian 09 at Fri Sep 14 18:25:46 2018.
