 Entering Gaussian System, Link 0=g09
 Input=Acroleina_water_15_96c.gjf
 Output=Acroleina_water_15_96c.log
 Initial command:
 /usr/local/pacerepov1/gaussian/G09D01LINDA/g09/l1.exe /nv/hp18/holiveira7/scratch/22412053/Gau-2756.inp -scrdir=/nv/hp18/holiveira7/scratch/22412053/
 Entering Link 1 = /usr/local/pacerepov1/gaussian/G09D01LINDA/g09/l1.exe PID=      2757.
  
 Copyright (c) 1988,1990,1992,1993,1995,1998,2003,2009,2013,
            Gaussian, Inc.  All Rights Reserved.
  
 This is part of the Gaussian(R) 09 program.  It is based on
 the Gaussian(R) 03 system (copyright 2003, Gaussian, Inc.),
 the Gaussian(R) 98 system (copyright 1998, Gaussian, Inc.),
 the Gaussian(R) 94 system (copyright 1995, Gaussian, Inc.),
 the Gaussian 92(TM) system (copyright 1992, Gaussian, Inc.),
 the Gaussian 90(TM) system (copyright 1990, Gaussian, Inc.),
 the Gaussian 88(TM) system (copyright 1988, Gaussian, Inc.),
 the Gaussian 86(TM) system (copyright 1986, Carnegie Mellon
 University), and the Gaussian 82(TM) system (copyright 1983,
 Carnegie Mellon University). Gaussian is a federally registered
 trademark of Gaussian, Inc.
  
 This software contains proprietary and confidential information,
 including trade secrets, belonging to Gaussian, Inc.
  
 This software is provided under written license and may be
 used, copied, transmitted, or stored only in accord with that
 written license.
  
 The following legend is applicable only to US Government
 contracts under FAR:
  
                    RESTRICTED RIGHTS LEGEND
  
 Use, reproduction and disclosure by the US Government is
 subject to restrictions as set forth in subparagraphs (a)
 and (c) of the Commercial Computer Software - Restricted
 Rights clause in FAR 52.227-19.
  
 Gaussian, Inc.
 340 Quinnipiac St., Bldg. 40, Wallingford CT 06492
  
  
 ---------------------------------------------------------------
 Warning -- This program may not be used in any manner that
 competes with the business of Gaussian, Inc. or will provide
 assistance to any competitor of Gaussian, Inc.  The licensee
 of this program is prohibited from giving any competitor of
 Gaussian, Inc. access to this program.  By using this program,
 the user acknowledges that Gaussian, Inc. is engaged in the
 business of creating and licensing software in the field of
 computational chemistry and represents and warrants to the
 licensee that it is not a competitor of Gaussian, Inc. and that
 it will not use this program in any manner prohibited above.
 ---------------------------------------------------------------
  

 Cite this work as:
 Gaussian 09, Revision D.01,
 M. J. Frisch, G. W. Trucks, H. B. Schlegel, G. E. Scuseria, 
 M. A. Robb, J. R. Cheeseman, G. Scalmani, V. Barone, B. Mennucci, 
 G. A. Petersson, H. Nakatsuji, M. Caricato, X. Li, H. P. Hratchian, 
 A. F. Izmaylov, J. Bloino, G. Zheng, J. L. Sonnenberg, M. Hada, 
 M. Ehara, K. Toyota, R. Fukuda, J. Hasegawa, M. Ishida, T. Nakajima, 
 Y. Honda, O. Kitao, H. Nakai, T. Vreven, J. A. Montgomery, Jr., 
 J. E. Peralta, F. Ogliaro, M. Bearpark, J. J. Heyd, E. Brothers, 
 K. N. Kudin, V. N. Staroverov, T. Keith, R. Kobayashi, J. Normand, 
 K. Raghavachari, A. Rendell, J. C. Burant, S. S. Iyengar, J. Tomasi, 
 M. Cossi, N. Rega, J. M. Millam, M. Klene, J. E. Knox, J. B. Cross, 
 V. Bakken, C. Adamo, J. Jaramillo, R. Gomperts, R. E. Stratmann, 
 O. Yazyev, A. J. Austin, R. Cammi, C. Pomelli, J. W. Ochterski, 
 R. L. Martin, K. Morokuma, V. G. Zakrzewski, G. A. Voth, 
 P. Salvador, J. J. Dannenberg, S. Dapprich, A. D. Daniels, 
 O. Farkas, J. B. Foresman, J. V. Ortiz, J. Cioslowski, 
 and D. J. Fox, Gaussian, Inc., Wallingford CT, 2013.
 
 ******************************************
 Gaussian 09:  EM64L-G09RevD.01 24-Apr-2013
                14-Sep-2018 
 ******************************************
 %chk=Acrolina_Din_96.chk
 %nprocshared=10
 Will use up to   10 processors via shared memory.
 -------------------------------------------
 #p td=(nstates=15)/6-31+g(d) lc-wpbe charge
 -------------------------------------------
 1/18=10,28=-2,38=1,125=101/1;
 2/12=2,17=6,18=5,40=1/2;
 3/5=1,6=6,7=11,11=9,16=1,25=1,30=1,74=-41/1,2,8,3;
 4//1;
 5/5=2,38=5/2;
 8/6=1,10=2,108=15/1;
 9/41=15,42=1,70=2/14;
 6/7=2,8=2,9=2,10=2/1;
 99/5=1,9=1/99;
 Leave Link    1 at Fri Sep 14 17:57:10 2018, MaxMem=           0 cpu:         4.7
 (Enter /usr/local/pacerepov1/gaussian/G09D01LINDA/g09/l101.exe)
 ------------------
 Acroleina in Water
 ------------------
 Symbolic Z-matrix:
 Charge =  0 Multiplicity = 1
 C                     0.48515   0.48044  -1.43014 
 H                     1.4614    0.18777  -1.05573 
 H                     0.42924   0.87885  -2.43706 
 C                    -0.60513   0.34656  -0.65843 
 H                    -1.59169   0.63289  -1.01241 
 C                    -0.50852  -0.19911   0.7128 
 H                    -1.45849  -0.27211   1.27244 
 O                     0.54488  -0.56132   1.23652 
 O                     1.09689  -2.8569    2.5857 
 H                     0.63427  -2.25113   1.93834 
 H                     0.42252  -3.44519   3.03192 
 O                     2.76805   2.60145   0.6257 
 H                     2.81834   3.54955   0.31162 
 H                     2.01308   2.50487   1.27431 
 O                     2.1868   -1.46174   4.21021 
 H                     2.87173  -0.81637   3.87193 
 H                     1.74661  -1.91675   3.43611 
 O                    -4.26695   3.67968  -1.43621 
 H                    -4.42416   4.52805  -0.93065 
 H                    -5.05318   3.07251  -1.32109 
 O                     5.10421   2.51274   0.52746 
 H                     5.28383   2.73485  -0.43088 
 H                     4.11684   2.4832    0.6833 
 O                    -4.08876   0.62142   3.52923 
 H                    -3.50756   0.94644   2.78316 
 H                    -3.52094   0.19026   4.23047 
 O                    -1.79181   5.52899  -0.30996 
 H                    -2.33289   4.70433  -0.47489 
 H                    -2.17365   6.02809   0.46792 
 O                     3.10724  -4.16859   2.2094 
 H                     2.27526  -3.66889   2.45064 
 H                     3.09126  -5.07051   2.64104 
 O                     2.99373   4.73208  -0.05016 
 H                     3.60155   5.28663  -0.61852 
 H                     2.04383   4.90586  -0.31006 
 O                     0.76984   5.34487  -0.59889 
 H                     0.89047   5.91164  -1.41389 
 H                    -0.20633   5.22252  -0.41953 
 O                    -5.5963   -1.09537   2.15172 
 H                    -4.91394  -0.4745    2.53764 
 H                    -5.57208  -1.96517   2.64464 
 O                    -4.16523   5.0953   -3.30459 
 H                    -4.1493    4.422    -2.56535 
 H                    -4.82423   4.8104   -4.00071 
 O                    -3.83896   2.52676  -5.24073 
 H                    -3.59823   1.60282  -4.94335 
 H                    -3.17306   3.1781   -4.87683 
 O                     0.77354  -0.30772   5.60871 
 H                     1.33528   0.35403   6.10527 
 H                     1.36473  -0.91417   5.07699 
 
 NAtoms=     50 NQM=       50 NQMF=       0 NMMI=      0 NMMIF=      0
                NMic=       0 NMicF=      0.
                    Isotopes and Nuclear Properties:
 (Nuclear quadrupole moments (NQMom) in fm**2, nuclear magnetic moments (NMagM)
  in nuclear magnetons)

  Atom         1           2           3           4           5           6           7           8           9          10
 IAtWgt=          12           1           1          12           1          12           1          16          16           1
 AtmWgt=  12.0000000   1.0078250   1.0078250  12.0000000   1.0078250  12.0000000   1.0078250  15.9949146  15.9949146   1.0078250
 NucSpn=           0           1           1           0           1           0           1           0           0           1
 AtZEff=   0.0000000   0.0000000   0.0000000   0.0000000   0.0000000   0.0000000   0.0000000   0.0000000   0.0000000   0.0000000
 NQMom=    0.0000000   0.0000000   0.0000000   0.0000000   0.0000000   0.0000000   0.0000000   0.0000000   0.0000000   0.0000000
 NMagM=    0.0000000   2.7928460   2.7928460   0.0000000   2.7928460   0.0000000   2.7928460   0.0000000   0.0000000   2.7928460
 AtZNuc=   6.0000000   1.0000000   1.0000000   6.0000000   1.0000000   6.0000000   1.0000000   8.0000000   8.0000000   1.0000000

  Atom        11          12          13          14          15          16          17          18          19          20
 IAtWgt=           1          16           1           1          16           1           1          16           1           1
 AtmWgt=   1.0078250  15.9949146   1.0078250   1.0078250  15.9949146   1.0078250   1.0078250  15.9949146   1.0078250   1.0078250
 NucSpn=           1           0           1           1           0           1           1           0           1           1
 AtZEff=   0.0000000   0.0000000   0.0000000   0.0000000   0.0000000   0.0000000   0.0000000   0.0000000   0.0000000   0.0000000
 NQMom=    0.0000000   0.0000000   0.0000000   0.0000000   0.0000000   0.0000000   0.0000000   0.0000000   0.0000000   0.0000000
 NMagM=    2.7928460   0.0000000   2.7928460   2.7928460   0.0000000   2.7928460   2.7928460   0.0000000   2.7928460   2.7928460
 AtZNuc=   1.0000000   8.0000000   1.0000000   1.0000000   8.0000000   1.0000000   1.0000000   8.0000000   1.0000000   1.0000000

  Atom        21          22          23          24          25          26          27          28          29          30
 IAtWgt=          16           1           1          16           1           1          16           1           1          16
 AtmWgt=  15.9949146   1.0078250   1.0078250  15.9949146   1.0078250   1.0078250  15.9949146   1.0078250   1.0078250  15.9949146
 NucSpn=           0           1           1           0           1           1           0           1           1           0
 AtZEff=   0.0000000   0.0000000   0.0000000   0.0000000   0.0000000   0.0000000   0.0000000   0.0000000   0.0000000   0.0000000
 NQMom=    0.0000000   0.0000000   0.0000000   0.0000000   0.0000000   0.0000000   0.0000000   0.0000000   0.0000000   0.0000000
 NMagM=    0.0000000   2.7928460   2.7928460   0.0000000   2.7928460   2.7928460   0.0000000   2.7928460   2.7928460   0.0000000
 AtZNuc=   8.0000000   1.0000000   1.0000000   8.0000000   1.0000000   1.0000000   8.0000000   1.0000000   1.0000000   8.0000000

  Atom        31          32          33          34          35          36          37          38          39          40
 IAtWgt=           1           1          16           1           1          16           1           1          16           1
 AtmWgt=   1.0078250   1.0078250  15.9949146   1.0078250   1.0078250  15.9949146   1.0078250   1.0078250  15.9949146   1.0078250
 NucSpn=           1           1           0           1           1           0           1           1           0           1
 AtZEff=   0.0000000   0.0000000   0.0000000   0.0000000   0.0000000   0.0000000   0.0000000   0.0000000   0.0000000   0.0000000
 NQMom=    0.0000000   0.0000000   0.0000000   0.0000000   0.0000000   0.0000000   0.0000000   0.0000000   0.0000000   0.0000000
 NMagM=    2.7928460   2.7928460   0.0000000   2.7928460   2.7928460   0.0000000   2.7928460   2.7928460   0.0000000   2.7928460
 AtZNuc=   1.0000000   1.0000000   8.0000000   1.0000000   1.0000000   8.0000000   1.0000000   1.0000000   8.0000000   1.0000000

  Atom        41          42          43          44          45          46          47          48          49          50
 IAtWgt=           1          16           1           1          16           1           1          16           1           1
 AtmWgt=   1.0078250  15.9949146   1.0078250   1.0078250  15.9949146   1.0078250   1.0078250  15.9949146   1.0078250   1.0078250
 NucSpn=           1           0           1           1           0           1           1           0           1           1
 AtZEff=   0.0000000   0.0000000   0.0000000   0.0000000   0.0000000   0.0000000   0.0000000   0.0000000   0.0000000   0.0000000
 NQMom=    0.0000000   0.0000000   0.0000000   0.0000000   0.0000000   0.0000000   0.0000000   0.0000000   0.0000000   0.0000000
 NMagM=    2.7928460   0.0000000   2.7928460   2.7928460   0.0000000   2.7928460   2.7928460   0.0000000   2.7928460   2.7928460
 AtZNuc=   1.0000000   8.0000000   1.0000000   1.0000000   8.0000000   1.0000000   1.0000000   8.0000000   1.0000000   1.0000000
 Background charge distribution read from input stream:
 Point Charges:
 XYZ=    2.2616   -5.3385    0.1286 Q=   -0.8200 A=    0.0000 R=    0.0000 C=    0.0000
 XYZ=    2.4966   -4.7557    0.9064 Q=    0.4100 A=    0.0000 R=    0.0000 C=    0.0000
 XYZ=    3.0968   -5.6043   -0.3530 Q=    0.4100 A=    0.0000 R=    0.0000 C=    0.0000
 XYZ=   -2.4481    4.1103   -4.5657 Q=   -0.8200 A=    0.0000 R=    0.0000 C=    0.0000
 XYZ=   -3.1022    4.5651   -3.9612 Q=    0.4100 A=    0.0000 R=    0.0000 C=    0.0000
 XYZ=   -1.7104    4.7450   -4.7963 Q=    0.4100 A=    0.0000 R=    0.0000 C=    0.0000
 XYZ=    4.6202   -0.2036    3.7447 Q=   -0.8200 A=    0.0000 R=    0.0000 C=    0.0000
 XYZ=    5.0837    0.4269    4.3674 Q=    0.4100 A=    0.0000 R=    0.0000 C=    0.0000
 XYZ=    5.2380   -0.4483    2.9974 Q=    0.4100 A=    0.0000 R=    0.0000 C=    0.0000
 XYZ=    6.1434   -1.0157    2.0938 Q=   -0.8200 A=    0.0000 R=    0.0000 C=    0.0000
 XYZ=    5.9625   -1.4931    1.2339 Q=    0.4100 A=    0.0000 R=    0.0000 C=    0.0000
 XYZ=    6.3973   -1.6801    2.7968 Q=    0.4100 A=    0.0000 R=    0.0000 C=    0.0000
 XYZ=   -6.2495    2.2356   -1.1814 Q=   -0.8200 A=    0.0000 R=    0.0000 C=    0.0000
 XYZ=   -6.7083    1.3475   -1.1529 Q=    0.4100 A=    0.0000 R=    0.0000 C=    0.0000
 XYZ=   -6.5662    2.7489   -1.9790 Q=    0.4100 A=    0.0000 R=    0.0000 C=    0.0000
 XYZ=    4.7589   -2.0633   -3.3815 Q=   -0.8200 A=    0.0000 R=    0.0000 C=    0.0000
 XYZ=    5.5431   -1.7374   -2.8534 Q=    0.4100 A=    0.0000 R=    0.0000 C=    0.0000
 XYZ=    4.1397   -1.2997   -3.5644 Q=    0.4100 A=    0.0000 R=    0.0000 C=    0.0000
 XYZ=    6.7870    0.8480    0.9393 Q=   -0.8200 A=    0.0000 R=    0.0000 C=    0.0000
 XYZ=    6.0390    1.5021    1.0526 Q=    0.4100 A=    0.0000 R=    0.0000 C=    0.0000
 XYZ=    6.5326   -0.0246    1.3565 Q=    0.4100 A=    0.0000 R=    0.0000 C=    0.0000
 XYZ=    4.9993   -3.8958    0.8391 Q=   -0.8200 A=    0.0000 R=    0.0000 C=    0.0000
 XYZ=    4.2127   -3.8141    1.4512 Q=    0.4100 A=    0.0000 R=    0.0000 C=    0.0000
 XYZ=    4.8090   -4.5873    0.1422 Q=    0.4100 A=    0.0000 R=    0.0000 C=    0.0000
 XYZ=    3.9679    0.0848   -4.0284 Q=   -0.8200 A=    0.0000 R=    0.0000 C=    0.0000
 XYZ=    3.4229    0.4826   -4.7665 Q=    0.4100 A=    0.0000 R=    0.0000 C=    0.0000
 XYZ=    4.6459    0.7513   -3.7183 Q=    0.4100 A=    0.0000 R=    0.0000 C=    0.0000
 XYZ=   -1.1276    0.7797    5.1763 Q=   -0.8200 A=    0.0000 R=    0.0000 C=    0.0000
 XYZ=   -1.0124    1.7679    5.0750 Q=    0.4100 A=    0.0000 R=    0.0000 C=    0.0000
 XYZ=   -0.2324    0.3504    5.2963 Q=    0.4100 A=    0.0000 R=    0.0000 C=    0.0000
 XYZ=   -0.1996   -4.7017    3.7762 Q=   -0.8200 A=    0.0000 R=    0.0000 C=    0.0000
 XYZ=   -0.6886   -5.0844    2.9923 Q=    0.4100 A=    0.0000 R=    0.0000 C=    0.0000
 XYZ=    0.3677   -5.4115    4.1939 Q=    0.4100 A=    0.0000 R=    0.0000 C=    0.0000
 XYZ=   -6.9506   -1.6427    0.4301 Q=   -0.8200 A=    0.0000 R=    0.0000 C=    0.0000
 XYZ=   -6.2493   -1.2690    1.0370 Q=    0.4100 A=    0.0000 R=    0.0000 C=    0.0000
 XYZ=   -7.1050   -2.6055    0.6522 Q=    0.4100 A=    0.0000 R=    0.0000 C=    0.0000
 XYZ=    6.5726   -0.9481   -1.9005 Q=   -0.8200 A=    0.0000 R=    0.0000 C=    0.0000
 XYZ=    7.4875   -0.5663   -1.7696 Q=    0.4100 A=    0.0000 R=    0.0000 C=    0.0000
 XYZ=    6.2996   -1.4486   -1.0790 Q=    0.4100 A=    0.0000 R=    0.0000 C=    0.0000
 XYZ=    6.2889   -2.3005    0.2220 Q=   -0.8200 A=    0.0000 R=    0.0000 C=    0.0000
 XYZ=    5.6540   -3.0629    0.3473 Q=    0.4100 A=    0.0000 R=    0.0000 C=    0.0000
 XYZ=    7.2132   -2.6559    0.0828 Q=    0.4100 A=    0.0000 R=    0.0000 C=    0.0000
 XYZ=    2.8725    0.8350   -6.1310 Q=   -0.8200 A=    0.0000 R=    0.0000 C=    0.0000
 XYZ=    3.2145    1.4651   -6.8282 Q=    0.4100 A=    0.0000 R=    0.0000 C=    0.0000
 XYZ=    1.9056    1.0225   -5.9580 Q=    0.4100 A=    0.0000 R=    0.0000 C=    0.0000
 XYZ=    5.8702    1.1260   -3.1491 Q=   -0.8200 A=    0.0000 R=    0.0000 C=    0.0000
 XYZ=    6.4415    1.1481   -3.9696 Q=    0.4100 A=    0.0000 R=    0.0000 C=    0.0000
 XYZ=    6.0210    0.2664   -2.6610 Q=    0.4100 A=    0.0000 R=    0.0000 C=    0.0000
 XYZ=   -6.5340    3.2955    1.0674 Q=   -0.8200 A=    0.0000 R=    0.0000 C=    0.0000
 XYZ=   -5.6773    3.7472    1.3166 Q=    0.4100 A=    0.0000 R=    0.0000 C=    0.0000
 XYZ=   -6.4202    2.8245    0.1926 Q=    0.4100 A=    0.0000 R=    0.0000 C=    0.0000
 XYZ=    1.1854    5.5062   -4.5207 Q=   -0.8200 A=    0.0000 R=    0.0000 C=    0.0000
 XYZ=    1.0200    4.6965   -5.0838 Q=    0.4100 A=    0.0000 R=    0.0000 C=    0.0000
 XYZ=    2.0270    5.9549   -4.8212 Q=    0.4100 A=    0.0000 R=    0.0000 C=    0.0000
 XYZ=    5.6711    3.0174   -1.6386 Q=   -0.8200 A=    0.0000 R=    0.0000 C=    0.0000
 XYZ=    5.6349    3.9278   -2.0511 Q=    0.4100 A=    0.0000 R=    0.0000 C=    0.0000
 XYZ=    5.6476    2.3240   -2.3588 Q=    0.4100 A=    0.0000 R=    0.0000 C=    0.0000
 XYZ=    0.8547    6.6682   -2.4411 Q=   -0.8200 A=    0.0000 R=    0.0000 C=    0.0000
 XYZ=   -0.0972    6.8803   -2.2196 Q=    0.4100 A=    0.0000 R=    0.0000 C=    0.0000
 XYZ=    0.8859    6.0842   -3.2523 Q=    0.4100 A=    0.0000 R=    0.0000 C=    0.0000
 XYZ=   -3.0235   -0.5711    5.0667 Q=   -0.8200 A=    0.0000 R=    0.0000 C=    0.0000
 XYZ=   -2.7443   -1.4843    5.3636 Q=    0.4100 A=    0.0000 R=    0.0000 C=    0.0000
 XYZ=   -2.2561    0.0619    5.1694 Q=    0.4100 A=    0.0000 R=    0.0000 C=    0.0000
 XYZ=   -0.4135   -2.0869    6.5596 Q=   -0.8200 A=    0.0000 R=    0.0000 C=    0.0000
 XYZ=    0.0145   -1.3578    6.0255 Q=    0.4100 A=    0.0000 R=    0.0000 C=    0.0000
 XYZ=   -1.3014   -2.3155    6.1601 Q=    0.4100 A=    0.0000 R=    0.0000 C=    0.0000
 XYZ=   -1.1553    7.2713   -1.6585 Q=   -0.8200 A=    0.0000 R=    0.0000 C=    0.0000
 XYZ=   -1.3701    6.3884   -1.2408 Q=    0.4100 A=    0.0000 R=    0.0000 C=    0.0000
 XYZ=   -1.2410    7.9940   -0.9727 Q=    0.4100 A=    0.0000 R=    0.0000 C=    0.0000
 XYZ=    3.0457   -2.3855    6.2874 Q=   -0.8200 A=    0.0000 R=    0.0000 C=    0.0000
 XYZ=    2.8602   -2.1799    5.3264 Q=    0.4100 A=    0.0000 R=    0.0000 C=    0.0000
 XYZ=    3.2348   -1.5358    6.7795 Q=    0.4100 A=    0.0000 R=    0.0000 C=    0.0000
 XYZ=   -1.1379   -5.8780    1.9659 Q=   -0.8200 A=    0.0000 R=    0.0000 C=    0.0000
 XYZ=   -0.4112   -6.1838    1.3508 Q=    0.4100 A=    0.0000 R=    0.0000 C=    0.0000
 XYZ=   -1.9888   -5.7742    1.4508 Q=    0.4100 A=    0.0000 R=    0.0000 C=    0.0000
 XYZ=    4.5313   -4.1613   -2.7803 Q=   -0.8200 A=    0.0000 R=    0.0000 C=    0.0000
 XYZ=    4.6208   -3.1889   -2.9958 Q=    0.4100 A=    0.0000 R=    0.0000 C=    0.0000
 XYZ=    4.2535   -4.6604   -3.6012 Q=    0.4100 A=    0.0000 R=    0.0000 C=    0.0000
 XYZ=    0.4940   -6.6229    0.6480 Q=   -0.8200 A=    0.0000 R=    0.0000 C=    0.0000
 XYZ=    1.3882   -6.1951    0.5155 Q=    0.4100 A=    0.0000 R=    0.0000 C=    0.0000
 XYZ=    0.0956   -6.8448   -0.2420 Q=    0.4100 A=    0.0000 R=    0.0000 C=    0.0000
 XYZ=   -2.1294   -4.6864    4.9102 Q=   -0.8200 A=    0.0000 R=    0.0000 C=    0.0000
 XYZ=   -1.2402   -4.6492    4.4541 Q=    0.4100 A=    0.0000 R=    0.0000 C=    0.0000
 XYZ=   -2.1769   -5.5059    5.4814 Q=    0.4100 A=    0.0000 R=    0.0000 C=    0.0000
 XYZ=    3.4731    5.7414    2.0322 Q=   -0.8200 A=    0.0000 R=    0.0000 C=    0.0000
 XYZ=    3.3255    5.1920    1.2097 Q=    0.4100 A=    0.0000 R=    0.0000 C=    0.0000
 XYZ=    3.3761    6.7109    1.8073 Q=    0.4100 A=    0.0000 R=    0.0000 C=    0.0000
 XYZ=   -5.6482    4.0754   -4.9147 Q=   -0.8200 A=    0.0000 R=    0.0000 C=    0.0000
 XYZ=   -5.8544    4.5323   -5.7800 Q=    0.4100 A=    0.0000 R=    0.0000 C=    0.0000
 XYZ=   -4.9633    3.3632   -5.0689 Q=    0.4100 A=    0.0000 R=    0.0000 C=    0.0000
 XYZ=   -4.7253    4.6659    1.8000 Q=   -0.8200 A=    0.0000 R=    0.0000 C=    0.0000
 XYZ=   -4.9055    5.2281    0.9929 Q=    0.4100 A=    0.0000 R=    0.0000 C=    0.0000
 XYZ=   -5.3129    4.9644    2.5521 Q=    0.4100 A=    0.0000 R=    0.0000 C=    0.0000
 XYZ=   -7.3824   -0.0352   -1.2813 Q=   -0.8200 A=    0.0000 R=    0.0000 C=    0.0000
 XYZ=   -7.5222   -0.2689   -2.2435 Q=    0.4100 A=    0.0000 R=    0.0000 C=    0.0000
 XYZ=   -7.0944   -0.8505   -0.7788 Q=    0.4100 A=    0.0000 R=    0.0000 C=    0.0000
 XYZ=    6.3882    3.9233    2.2754 Q=   -0.8200 A=    0.0000 R=    0.0000 C=    0.0000
 XYZ=    5.8303    4.6993    2.5696 Q=    0.4100 A=    0.0000 R=    0.0000 C=    0.0000
 XYZ=    5.8718    3.3705    1.6213 Q=    0.4100 A=    0.0000 R=    0.0000 C=    0.0000
 XYZ=   -3.3901   -5.5293    1.1568 Q=   -0.8200 A=    0.0000 R=    0.0000 C=    0.0000
 XYZ=   -3.3241   -6.5079    0.9623 Q=    0.4100 A=    0.0000 R=    0.0000 C=    0.0000
 XYZ=   -3.9358   -5.0843    0.4467 Q=    0.4100 A=    0.0000 R=    0.0000 C=    0.0000
 XYZ=   -5.1501    5.6818   -0.4017 Q=   -0.8200 A=    0.0000 R=    0.0000 C=    0.0000
 XYZ=   -4.8576    6.6235   -0.2350 Q=    0.4100 A=    0.0000 R=    0.0000 C=    0.0000
 XYZ=   -5.8560    5.6725   -1.1100 Q=    0.4100 A=    0.0000 R=    0.0000 C=    0.0000
 XYZ=    5.1511   -2.1554    5.3256 Q=   -0.8200 A=    0.0000 R=    0.0000 C=    0.0000
 XYZ=    4.8830   -1.4941    4.6250 Q=    0.4100 A=    0.0000 R=    0.0000 C=    0.0000
 XYZ=    4.3340   -2.5945    5.6994 Q=    0.4100 A=    0.0000 R=    0.0000 C=    0.0000
 XYZ=   -2.7717    7.0338   -3.4503 Q=   -0.8200 A=    0.0000 R=    0.0000 C=    0.0000
 XYZ=   -2.1186    7.1773   -2.7068 Q=    0.4100 A=    0.0000 R=    0.0000 C=    0.0000
 XYZ=   -3.4433    6.3456   -3.1759 Q=    0.4100 A=    0.0000 R=    0.0000 C=    0.0000
 XYZ=   -5.8839    1.8243    4.7961 Q=   -0.8200 A=    0.0000 R=    0.0000 C=    0.0000
 XYZ=   -5.0879    1.3806    4.3844 Q=    0.4100 A=    0.0000 R=    0.0000 C=    0.0000
 XYZ=   -6.3691    1.1684    5.3745 Q=    0.4100 A=    0.0000 R=    0.0000 C=    0.0000
 XYZ=    7.7328    2.0758   -0.9448 Q=   -0.8200 A=    0.0000 R=    0.0000 C=    0.0000
 XYZ=    6.8753    2.4295   -1.3184 Q=    0.4100 A=    0.0000 R=    0.0000 C=    0.0000
 XYZ=    7.5457    1.5694   -0.1030 Q=    0.4100 A=    0.0000 R=    0.0000 C=    0.0000
 XYZ=   -2.4574   -2.5763    5.8633 Q=   -0.8200 A=    0.0000 R=    0.0000 C=    0.0000
 XYZ=   -3.0406   -2.7095    6.6646 Q=    0.4100 A=    0.0000 R=    0.0000 C=    0.0000
 XYZ=   -2.3448   -3.4470    5.3846 Q=    0.4100 A=    0.0000 R=    0.0000 C=    0.0000
 XYZ=   -6.9749    3.4450   -3.0140 Q=   -0.8200 A=    0.0000 R=    0.0000 C=    0.0000
 XYZ=   -6.5086    3.8560   -3.7974 Q=    0.4100 A=    0.0000 R=    0.0000 C=    0.0000
 XYZ=   -7.8080    2.9872   -3.3247 Q=    0.4100 A=    0.0000 R=    0.0000 C=    0.0000
 XYZ=   -5.5577   -3.3943    2.8783 Q=   -0.8200 A=    0.0000 R=    0.0000 C=    0.0000
 XYZ=   -5.8946   -3.0940    3.7707 Q=    0.4100 A=    0.0000 R=    0.0000 C=    0.0000
 XYZ=   -4.9275   -4.1610    3.0008 Q=    0.4100 A=    0.0000 R=    0.0000 C=    0.0000
 XYZ=    1.2997   -4.0350    6.5876 Q=   -0.8200 A=    0.0000 R=    0.0000 C=    0.0000
 XYZ=    2.1540   -3.5193    6.5225 Q=    0.4100 A=    0.0000 R=    0.0000 C=    0.0000
 XYZ=    0.5406   -3.4631    6.2765 Q=    0.4100 A=    0.0000 R=    0.0000 C=    0.0000
 XYZ=    4.5049   -5.6002   -0.8930 Q=   -0.8200 A=    0.0000 R=    0.0000 C=    0.0000
 XYZ=    5.3444   -6.1434   -0.9034 Q=    0.4100 A=    0.0000 R=    0.0000 C=    0.0000
 XYZ=    4.4627   -5.0361   -1.7177 Q=    0.4100 A=    0.0000 R=    0.0000 C=    0.0000
 XYZ=   -8.0164   -0.0331    2.6397 Q=   -0.8200 A=    0.0000 R=    0.0000 C=    0.0000
 XYZ=   -7.3472   -0.5224    2.0804 Q=    0.4100 A=    0.0000 R=    0.0000 C=    0.0000
 XYZ=   -7.6674    0.8790    2.8550 Q=    0.4100 A=    0.0000 R=    0.0000 C=    0.0000
 XYZ=   -4.6602    2.5054   -7.5001 Q=   -0.8200 A=    0.0000 R=    0.0000 C=    0.0000
 XYZ=   -4.6680    1.5921   -7.9073 Q=    0.4100 A=    0.0000 R=    0.0000 C=    0.0000
 XYZ=   -4.1302    2.4876   -6.6522 Q=    0.4100 A=    0.0000 R=    0.0000 C=    0.0000
 XYZ=   -3.9765   -5.1959    3.3649 Q=   -0.8200 A=    0.0000 R=    0.0000 C=    0.0000
 XYZ=   -3.1018   -4.9880    3.8028 Q=    0.4100 A=    0.0000 R=    0.0000 C=    0.0000
 XYZ=   -3.8358   -5.3227    2.3830 Q=    0.4100 A=    0.0000 R=    0.0000 C=    0.0000
 XYZ=   -2.9130    6.6230    1.3898 Q=   -0.8200 A=    0.0000 R=    0.0000 C=    0.0000
 XYZ=   -3.3501    6.0719    2.1007 Q=    0.4100 A=    0.0000 R=    0.0000 C=    0.0000
 XYZ=   -3.5951    7.2151    0.9605 Q=    0.4100 A=    0.0000 R=    0.0000 C=    0.0000
 XYZ=   -6.9294   -3.9257    0.9242 Q=   -0.8200 A=    0.0000 R=    0.0000 C=    0.0000
 XYZ=   -6.3366   -4.5897    0.4684 Q=    0.4100 A=    0.0000 R=    0.0000 C=    0.0000
 XYZ=   -6.4607   -3.5563    1.7267 Q=    0.4100 A=    0.0000 R=    0.0000 C=    0.0000
 XYZ=    4.4003    6.3716   -0.9115 Q=   -0.8200 A=    0.0000 R=    0.0000 C=    0.0000
 XYZ=    5.0604    7.0413   -0.5713 Q=    0.4100 A=    0.0000 R=    0.0000 C=    0.0000
 XYZ=    4.8366    5.7947   -1.6020 Q=    0.4100 A=    0.0000 R=    0.0000 C=    0.0000
 XYZ=   -1.3102    6.1427   -5.1239 Q=   -0.8200 A=    0.0000 R=    0.0000 C=    0.0000
 XYZ=   -0.3638    6.3145   -4.8505 Q=    0.4100 A=    0.0000 R=    0.0000 C=    0.0000
 XYZ=   -1.9299    6.5838   -4.4746 Q=    0.4100 A=    0.0000 R=    0.0000 C=    0.0000
 XYZ=   -6.8847    5.6195   -2.1541 Q=   -0.8200 A=    0.0000 R=    0.0000 C=    0.0000
 XYZ=   -6.6698    6.1773   -2.9559 Q=    0.4100 A=    0.0000 R=    0.0000 C=    0.0000
 XYZ=   -6.9197    4.6557   -2.4183 Q=    0.4100 A=    0.0000 R=    0.0000 C=    0.0000
 XYZ=   -5.0921   -1.3176    6.1140 Q=   -0.8200 A=    0.0000 R=    0.0000 C=    0.0000
 XYZ=   -4.3601   -0.9549    5.5373 Q=    0.4100 A=    0.0000 R=    0.0000 C=    0.0000
 XYZ=   -4.7257   -1.5391    7.0177 Q=    0.4100 A=    0.0000 R=    0.0000 C=    0.0000
 XYZ=   -7.3525    2.1212    3.0486 Q=   -0.8200 A=    0.0000 R=    0.0000 C=    0.0000
 XYZ=   -6.9646    2.5304    2.2227 Q=    0.4100 A=    0.0000 R=    0.0000 C=    0.0000
 XYZ=   -6.6487    2.0697    3.7572 Q=    0.4100 A=    0.0000 R=    0.0000 C=    0.0000
 XYZ=    4.3880   -2.8512   -5.8765 Q=   -0.8200 A=    0.0000 R=    0.0000 C=    0.0000
 XYZ=    4.6185   -2.4588   -4.9860 Q=    0.4100 A=    0.0000 R=    0.0000 C=    0.0000
 XYZ=    5.2263   -3.1323   -6.3438 Q=    0.4100 A=    0.0000 R=    0.0000 C=    0.0000
 XYZ=    8.7575    1.3539    2.1440 Q=   -0.8200 A=    0.0000 R=    0.0000 C=    0.0000
 XYZ=    8.4351    1.8850    2.9276 Q=    0.4100 A=    0.0000 R=    0.0000 C=    0.0000
 XYZ=    7.9761    1.0767    1.5849 Q=    0.4100 A=    0.0000 R=    0.0000 C=    0.0000
 XYZ=    3.1598   -6.1977    3.3723 Q=   -0.8200 A=    0.0000 R=    0.0000 C=    0.0000
 XYZ=    2.6917   -6.7803    2.7079 Q=    0.4100 A=    0.0000 R=    0.0000 C=    0.0000
 XYZ=    2.6307   -6.1675    4.2203 Q=    0.4100 A=    0.0000 R=    0.0000 C=    0.0000
 XYZ=    5.5861    1.3920    5.1347 Q=   -0.8200 A=    0.0000 R=    0.0000 C=    0.0000
 XYZ=    5.7006    0.7272    5.8729 Q=    0.4100 A=    0.0000 R=    0.0000 C=    0.0000
 XYZ=    4.8817    2.0546    5.3892 Q=    0.4100 A=    0.0000 R=    0.0000 C=    0.0000
 XYZ=    6.3447   -3.3056    3.4911 Q=   -0.8200 A=    0.0000 R=    0.0000 C=    0.0000
 XYZ=    6.0097   -3.0415    4.3955 Q=    0.4100 A=    0.0000 R=    0.0000 C=    0.0000
 XYZ=    5.8312   -4.0989    3.1641 Q=    0.4100 A=    0.0000 R=    0.0000 C=    0.0000
 XYZ=    2.2699    1.1880    6.6008 Q=   -0.8200 A=    0.0000 R=    0.0000 C=    0.0000
 XYZ=    2.6722    0.3993    7.0657 Q=    0.4100 A=    0.0000 R=    0.0000 C=    0.0000
 XYZ=    2.9350    1.9344    6.5747 Q=    0.4100 A=    0.0000 R=    0.0000 C=    0.0000
 XYZ=   -5.5620   -5.2886   -0.2733 Q=   -0.8200 A=    0.0000 R=    0.0000 C=    0.0000
 XYZ=   -5.7680   -5.1259   -1.2383 Q=    0.4100 A=    0.0000 R=    0.0000 C=    0.0000
 XYZ=   -5.6465   -6.2651   -0.0745 Q=    0.4100 A=    0.0000 R=    0.0000 C=    0.0000
 XYZ=    7.2619    2.3778    3.6648 Q=   -0.8200 A=    0.0000 R=    0.0000 C=    0.0000
 XYZ=    6.8537    3.1057    3.1138 Q=    0.4100 A=    0.0000 R=    0.0000 C=    0.0000
 XYZ=    6.5494    1.9283    4.2037 Q=    0.4100 A=    0.0000 R=    0.0000 C=    0.0000
 XYZ=   -6.1983   -4.8918   -2.5514 Q=   -0.8200 A=    0.0000 R=    0.0000 C=    0.0000
 XYZ=   -6.4310   -4.9894   -3.5191 Q=    0.4100 A=    0.0000 R=    0.0000 C=    0.0000
 XYZ=   -6.4463   -3.9745   -2.2399 Q=    0.4100 A=    0.0000 R=    0.0000 C=    0.0000
 XYZ=    5.4975   -5.4128    2.9704 Q=   -0.8200 A=    0.0000 R=    0.0000 C=    0.0000
 XYZ=    5.3850   -5.2318    1.9933 Q=    0.4100 A=    0.0000 R=    0.0000 C=    0.0000
 XYZ=    4.6723   -5.8526    3.3251 Q=    0.4100 A=    0.0000 R=    0.0000 C=    0.0000
 XYZ=    5.6034    5.2802   -2.6170 Q=   -0.8200 A=    0.0000 R=    0.0000 C=    0.0000
 XYZ=    6.5474    5.5376   -2.4109 Q=    0.4100 A=    0.0000 R=    0.0000 C=    0.0000
 XYZ=    5.4019    5.4903   -3.5737 Q=    0.4100 A=    0.0000 R=    0.0000 C=    0.0000
 XYZ=    2.5735    8.0319   -1.0801 Q=   -0.8200 A=    0.0000 R=    0.0000 C=    0.0000
 XYZ=    3.3118    7.3575   -1.0935 Q=    0.4100 A=    0.0000 R=    0.0000 C=    0.0000
 XYZ=    1.9166    7.8214   -1.8041 Q=    0.4100 A=    0.0000 R=    0.0000 C=    0.0000
 XYZ=    1.5247   -6.0252    5.0308 Q=   -0.8200 A=    0.0000 R=    0.0000 C=    0.0000
 XYZ=    0.8515   -6.7467    5.1932 Q=    0.4100 A=    0.0000 R=    0.0000 C=    0.0000
 XYZ=    1.4709   -5.3479    5.7646 Q=    0.4100 A=    0.0000 R=    0.0000 C=    0.0000
 XYZ=    7.1131   -4.5036   -1.9398 Q=   -0.8200 A=    0.0000 R=    0.0000 C=    0.0000
 XYZ=    6.2151   -4.3599   -2.3558 Q=    0.4100 A=    0.0000 R=    0.0000 C=    0.0000
 XYZ=    7.8096   -4.5441   -2.6562 Q=    0.4100 A=    0.0000 R=    0.0000 C=    0.0000
 XYZ=    4.4639   -0.8850   -7.1625 Q=   -0.8200 A=    0.0000 R=    0.0000 C=    0.0000
 XYZ=    4.4384   -1.7750   -6.7072 Q=    0.4100 A=    0.0000 R=    0.0000 C=    0.0000
 XYZ=    3.8185   -0.2642   -6.7173 Q=    0.4100 A=    0.0000 R=    0.0000 C=    0.0000
 XYZ=   -1.2284   -8.0092    3.1405 Q=   -0.8200 A=    0.0000 R=    0.0000 C=    0.0000
 XYZ=   -1.3997   -7.1170    2.7227 Q=    0.4100 A=    0.0000 R=    0.0000 C=    0.0000
 XYZ=   -0.5005   -8.4775    2.6396 Q=    0.4100 A=    0.0000 R=    0.0000 C=    0.0000
 XYZ=   -1.6784    5.0073   -7.2281 Q=   -0.8200 A=    0.0000 R=    0.0000 C=    0.0000
 XYZ=   -1.5358    5.4814   -6.3593 Q=    0.4100 A=    0.0000 R=    0.0000 C=    0.0000
 XYZ=   -2.3397    5.5152   -7.7803 Q=    0.4100 A=    0.0000 R=    0.0000 C=    0.0000
 XYZ=    1.9838    4.4540   -7.1243 Q=   -0.8200 A=    0.0000 R=    0.0000 C=    0.0000
 XYZ=    2.4601    5.0551   -6.4826 Q=    0.4100 A=    0.0000 R=    0.0000 C=    0.0000
 XYZ=    2.6294    3.7892   -7.5002 Q=    0.4100 A=    0.0000 R=    0.0000 C=    0.0000
 XYZ=    2.3379    6.4327    3.9079 Q=   -0.8200 A=    0.0000 R=    0.0000 C=    0.0000
 XYZ=    1.6032    7.0467    3.6194 Q=    0.4100 A=    0.0000 R=    0.0000 C=    0.0000
 XYZ=    2.7244    5.9760    3.1066 Q=    0.4100 A=    0.0000 R=    0.0000 C=    0.0000
 XYZ=    8.7465   -0.0128   -1.4613 Q=   -0.8200 A=    0.0000 R=    0.0000 C=    0.0000
 XYZ=    8.3762    0.9041   -1.3121 Q=    0.4100 A=    0.0000 R=    0.0000 C=    0.0000
 XYZ=    9.3414   -0.2604   -0.6967 Q=    0.4100 A=    0.0000 R=    0.0000 C=    0.0000
 XYZ=    3.1446    6.3001   -5.6074 Q=   -0.8200 A=    0.0000 R=    0.0000 C=    0.0000
 XYZ=    3.8812    5.9757   -5.0140 Q=    0.4100 A=    0.0000 R=    0.0000 C=    0.0000
 XYZ=    3.4080    7.1725   -6.0191 Q=    0.4100 A=    0.0000 R=    0.0000 C=    0.0000
 XYZ=   -1.2363    8.1412    1.8190 Q=   -0.8200 A=    0.0000 R=    0.0000 C=    0.0000
 XYZ=   -1.6737    8.9329    2.2457 Q=    0.4100 A=    0.0000 R=    0.0000 C=    0.0000
 XYZ=   -1.9010    7.3991    1.7336 Q=    0.4100 A=    0.0000 R=    0.0000 C=    0.0000
 XYZ=   -1.5112   -1.0437    8.4191 Q=   -0.8200 A=    0.0000 R=    0.0000 C=    0.0000
 XYZ=   -1.0524   -1.4154    7.6121 Q=    0.4100 A=    0.0000 R=    0.0000 C=    0.0000
 XYZ=   -1.0700   -1.3951    9.2448 Q=    0.4100 A=    0.0000 R=    0.0000 C=    0.0000
 XYZ=   -8.2779    4.9228    1.5839 Q=   -0.8200 A=    0.0000 R=    0.0000 C=    0.0000
 XYZ=   -7.5821    4.2581    1.3117 Q=    0.4100 A=    0.0000 R=    0.0000 C=    0.0000
 XYZ=   -9.0285    4.4496    2.0452 Q=    0.4100 A=    0.0000 R=    0.0000 C=    0.0000
 XYZ=   -9.6479    0.4295   -0.5297 Q=   -0.8200 A=    0.0000 R=    0.0000 C=    0.0000
 XYZ=   -9.7367    1.4000   -0.7541 Q=    0.4100 A=    0.0000 R=    0.0000 C=    0.0000
 XYZ=   -8.7019    0.1392   -0.6743 Q=    0.4100 A=    0.0000 R=    0.0000 C=    0.0000
 XYZ=   -2.3530    3.0089   -8.3021 Q=   -0.8200 A=    0.0000 R=    0.0000 C=    0.0000
 XYZ=   -3.2462    2.9775   -7.8535 Q=    0.4100 A=    0.0000 R=    0.0000 C=    0.0000
 XYZ=   -1.8331    3.7897   -7.9554 Q=    0.4100 A=    0.0000 R=    0.0000 C=    0.0000
 XYZ=    5.3941    5.8251    3.3298 Q=   -0.8200 A=    0.0000 R=    0.0000 C=    0.0000
 XYZ=    5.0575    5.5929    4.2425 Q=    0.4100 A=    0.0000 R=    0.0000 C=    0.0000
 XYZ=    4.6357    5.7998    2.6785 Q=    0.4100 A=    0.0000 R=    0.0000 C=    0.0000
 XYZ=    3.9583    2.8396    6.2192 Q=   -0.8200 A=    0.0000 R=    0.0000 C=    0.0000
 XYZ=    4.4827    2.7965    7.0696 Q=    0.4100 A=    0.0000 R=    0.0000 C=    0.0000
 XYZ=    4.0727    3.7414    5.8025 Q=    0.4100 A=    0.0000 R=    0.0000 C=    0.0000
 XYZ=    8.3858   -3.7514    2.2740 Q=   -0.8200 A=    0.0000 R=    0.0000 C=    0.0000
 XYZ=    7.5865   -3.5317    2.8333 Q=    0.4100 A=    0.0000 R=    0.0000 C=    0.0000
 XYZ=    8.1564   -3.6411    1.3069 Q=    0.4100 A=    0.0000 R=    0.0000 C=    0.0000
 XYZ=    3.1637    8.0884    1.1388 Q=   -0.8200 A=    0.0000 R=    0.0000 C=    0.0000
 XYZ=    2.3700    8.2489    1.7257 Q=    0.4100 A=    0.0000 R=    0.0000 C=    0.0000
 XYZ=    2.8698    8.0510    0.1837 Q=    0.4100 A=    0.0000 R=    0.0000 C=    0.0000
 XYZ=    8.5779   -3.5392   -0.2677 Q=   -0.8200 A=    0.0000 R=    0.0000 C=    0.0000
 XYZ=    9.5224   -3.7499   -0.5197 Q=    0.4100 A=    0.0000 R=    0.0000 C=    0.0000
 XYZ=    7.9618   -3.8579   -0.9880 Q=    0.4100 A=    0.0000 R=    0.0000 C=    0.0000
 XYZ=   -4.4474    7.9206    0.1021 Q=   -0.8200 A=    0.0000 R=    0.0000 C=    0.0000
 XYZ=   -4.0896    8.4798   -0.6458 Q=    0.4100 A=    0.0000 R=    0.0000 C=    0.0000
 XYZ=   -5.1078    8.4541    0.6307 Q=    0.4100 A=    0.0000 R=    0.0000 C=    0.0000
 XYZ=    1.1878    8.1228    2.4013 Q=   -0.8200 A=    0.0000 R=    0.0000 C=    0.0000
 XYZ=    1.0982    9.0172    2.8395 Q=    0.4100 A=    0.0000 R=    0.0000 C=    0.0000
 XYZ=    0.3207    7.8750    1.9693 Q=    0.4100 A=    0.0000 R=    0.0000 C=    0.0000
 XYZ=    8.7211    4.3567   -1.1402 Q=   -0.8200 A=    0.0000 R=    0.0000 C=    0.0000
 XYZ=    8.1709    3.5386   -0.9725 Q=    0.4100 A=    0.0000 R=    0.0000 C=    0.0000
 XYZ=    9.1484    4.6518   -0.2856 Q=    0.4100 A=    0.0000 R=    0.0000 C=    0.0000
 XYZ=   -6.5061   -2.7988    5.1534 Q=   -0.8200 A=    0.0000 R=    0.0000 C=    0.0000
 XYZ=   -7.3226   -2.3221    4.8278 Q=    0.4100 A=    0.0000 R=    0.0000 C=    0.0000
 XYZ=   -5.9113   -2.1526    5.6316 Q=    0.4100 A=    0.0000 R=    0.0000 C=    0.0000
 XYZ=    5.9484   -0.3695    6.6793 Q=   -0.8200 A=    0.0000 R=    0.0000 C=    0.0000
 XYZ=    6.2979   -0.5661    7.5954 Q=    0.4100 A=    0.0000 R=    0.0000 C=    0.0000
 XYZ=    6.1973   -1.1147    6.0606 Q=    0.4100 A=    0.0000 R=    0.0000 C=    0.0000
 XYZ=    5.4047    5.7131   -4.8540 Q=   -0.8200 A=    0.0000 R=    0.0000 C=    0.0000
 XYZ=    6.0859    6.4311   -4.9971 Q=    0.4100 A=    0.0000 R=    0.0000 C=    0.0000
 XYZ=    5.7045    4.8740   -5.3079 Q=    0.4100 A=    0.0000 R=    0.0000 C=    0.0000
 XYZ=    3.6711   -0.5335    7.5474 Q=   -0.8200 A=    0.0000 R=    0.0000 C=    0.0000
 XYZ=    3.7813   -0.2646    8.5042 Q=    0.4100 A=    0.0000 R=    0.0000 C=    0.0000
 XYZ=    4.5421   -0.4247    7.0683 Q=    0.4100 A=    0.0000 R=    0.0000 C=    0.0000
 XYZ=    1.4283    2.8299    8.1389 Q=   -0.8200 A=    0.0000 R=    0.0000 C=    0.0000
 XYZ=    1.5643    2.0064    7.5880 Q=    0.4100 A=    0.0000 R=    0.0000 C=    0.0000
 XYZ=    0.5601    2.7624    8.6304 Q=    0.4100 A=    0.0000 R=    0.0000 C=    0.0000
 XYZ=    0.1911    4.6496   -8.5965 Q=   -0.8200 A=    0.0000 R=    0.0000 C=    0.0000
 XYZ=   -0.6073    4.7685   -8.0061 Q=    0.4100 A=    0.0000 R=    0.0000 C=    0.0000
 XYZ=    0.9814    4.3924   -8.0404 Q=    0.4100 A=    0.0000 R=    0.0000 C=    0.0000
 XYZ=   -6.6262    3.9417    5.4881 Q=   -0.8200 A=    0.0000 R=    0.0000 C=    0.0000
 XYZ=   -6.5675    3.9871    6.4854 Q=    0.4100 A=    0.0000 R=    0.0000 C=    0.0000
 XYZ=   -6.1938    3.0992    5.1669 Q=    0.4100 A=    0.0000 R=    0.0000 C=    0.0000
 XYZ=    3.3093    2.6570   -8.1384 Q=   -0.8200 A=    0.0000 R=    0.0000 C=    0.0000
 XYZ=    4.3029    2.6051   -8.2386 Q=    0.4100 A=    0.0000 R=    0.0000 C=    0.0000
 XYZ=    2.8718    2.2226   -8.9258 Q=    0.4100 A=    0.0000 R=    0.0000 C=    0.0000
 XYZ=   -5.9423    5.3655    3.5909 Q=   -0.8200 A=    0.0000 R=    0.0000 C=    0.0000
 XYZ=   -6.7237    5.9874    3.5381 Q=    0.4100 A=    0.0000 R=    0.0000 C=    0.0000
 XYZ=   -6.1189    4.6665    4.2838 Q=    0.4100 A=    0.0000 R=    0.0000 C=    0.0000
 XYZ=   -8.2977   -1.6172    4.5339 Q=   -0.8200 A=    0.0000 R=    0.0000 C=    0.0000
 XYZ=   -8.2309   -0.9556    3.7871 Q=    0.4100 A=    0.0000 R=    0.0000 C=    0.0000
 XYZ=   -9.1315   -2.1587    4.4259 Q=    0.4100 A=    0.0000 R=    0.0000 C=    0.0000
 XYZ=   -0.2831   -7.4469    5.2682 Q=   -0.8200 A=    0.0000 R=    0.0000 C=    0.0000
 XYZ=   -0.9083   -7.0479    5.9391 Q=    0.4100 A=    0.0000 R=    0.0000 C=    0.0000
 XYZ=   -0.7780   -7.6285    4.4183 Q=    0.4100 A=    0.0000 R=    0.0000 C=    0.0000
 XYZ=   -6.1479    4.7122   -7.1205 Q=   -0.8200 A=    0.0000 R=    0.0000 C=    0.0000
 XYZ=   -5.8733    5.3237   -7.8626 Q=    0.4100 A=    0.0000 R=    0.0000 C=    0.0000
 XYZ=   -5.7613    3.8034   -7.2773 Q=    0.4100 A=    0.0000 R=    0.0000 C=    0.0000
 XYZ=   10.0291   -0.4617    0.6195 Q=   -0.8200 A=    0.0000 R=    0.0000 C=    0.0000
 XYZ=   10.1603   -1.3393    1.0807 Q=    0.4100 A=    0.0000 R=    0.0000 C=    0.0000
 XYZ=    9.4502    0.1276    1.1830 Q=    0.4100 A=    0.0000 R=    0.0000 C=    0.0000
 XYZ=   -3.2123   -7.6965    0.2264 Q=   -0.8200 A=    0.0000 R=    0.0000 C=    0.0000
 XYZ=   -4.1885   -7.6984    0.0091 Q=    0.4100 A=    0.0000 R=    0.0000 C=    0.0000
 XYZ=   -2.9191   -8.6258    0.4511 Q=    0.4100 A=    0.0000 R=    0.0000 C=    0.0000
 XYZ=   -1.3724    9.1885   -0.2338 Q=   -0.8200 A=    0.0000 R=    0.0000 C=    0.0000
 XYZ=   -0.4654    9.4721   -0.5454 Q=    0.4100 A=    0.0000 R=    0.0000 C=    0.0000
 XYZ=   -1.2835    8.6484    0.6031 Q=    0.4100 A=    0.0000 R=    0.0000 C=    0.0000
 XYZ=    4.2448    4.9913    5.3110 Q=   -0.8200 A=    0.0000 R=    0.0000 C=    0.0000
 XYZ=    4.8361    5.4544    5.9714 Q=    0.4100 A=    0.0000 R=    0.0000 C=    0.0000
 XYZ=    3.5084    5.6082    5.0331 Q=    0.4100 A=    0.0000 R=    0.0000 C=    0.0000
 XYZ=    7.4905    1.0276   -4.9509 Q=   -0.8200 A=    0.0000 R=    0.0000 C=    0.0000
 XYZ=    7.8849    1.9344   -5.1004 Q=    0.4100 A=    0.0000 R=    0.0000 C=    0.0000
 XYZ=    8.2226    0.3472   -4.9174 Q=    0.4100 A=    0.0000 R=    0.0000 C=    0.0000
 XYZ=   -4.5850    0.4890   -8.4570 Q=   -0.8200 A=    0.0000 R=    0.0000 C=    0.0000
 XYZ=   -5.2465   -0.0826   -7.9715 Q=    0.4100 A=    0.0000 R=    0.0000 C=    0.0000
 XYZ=   -4.8941    0.6313   -9.3973 Q=    0.4100 A=    0.0000 R=    0.0000 C=    0.0000
 XYZ=    6.5473   -6.5836   -0.9046 Q=   -0.8200 A=    0.0000 R=    0.0000 C=    0.0000
 XYZ=    7.2883   -7.0523   -0.4237 Q=    0.4100 A=    0.0000 R=    0.0000 C=    0.0000
 XYZ=    6.8893   -5.7260   -1.2888 Q=    0.4100 A=    0.0000 R=    0.0000 C=    0.0000
 XYZ=    0.4326   -3.9953    8.9587 Q=   -0.8200 A=    0.0000 R=    0.0000 C=    0.0000
 XYZ=    0.8570   -3.9316    8.0555 Q=    0.4100 A=    0.0000 R=    0.0000 C=    0.0000
 XYZ=    1.1170   -4.2822    9.6290 Q=    0.4100 A=    0.0000 R=    0.0000 C=    0.0000
 XYZ=   -5.3796   -6.1848    4.9516 Q=   -0.8200 A=    0.0000 R=    0.0000 C=    0.0000
 XYZ=   -4.7625   -5.6196    4.4040 Q=    0.4100 A=    0.0000 R=    0.0000 C=    0.0000
 XYZ=   -6.2531   -5.7112    5.0647 Q=    0.4100 A=    0.0000 R=    0.0000 C=    0.0000
 XYZ=  -10.1202    0.2312    1.6497 Q=   -0.8200 A=    0.0000 R=    0.0000 C=    0.0000
 XYZ=   -9.9983    0.4927    0.6922 Q=    0.4100 A=    0.0000 R=    0.0000 C=    0.0000
 XYZ=   -9.2266    0.0596    2.0646 Q=    0.4100 A=    0.0000 R=    0.0000 C=    0.0000
 XYZ=    8.4903    4.9862    2.8607 Q=   -0.8200 A=    0.0000 R=    0.0000 C=    0.0000
 XYZ=    8.6889    4.5681    3.7472 Q=    0.4100 A=    0.0000 R=    0.0000 C=    0.0000
 XYZ=    7.6808    4.5546    2.4626 Q=    0.4100 A=    0.0000 R=    0.0000 C=    0.0000
 XYZ=   -3.7874   -1.8653    7.9077 Q=   -0.8200 A=    0.0000 R=    0.0000 C=    0.0000
 XYZ=   -2.8895   -1.4470    8.0453 Q=    0.4100 A=    0.0000 R=    0.0000 C=    0.0000
 XYZ=   -3.8513   -2.7033    8.4495 Q=    0.4100 A=    0.0000 R=    0.0000 C=    0.0000
 XYZ=   -8.6231   -5.2997    1.8111 Q=   -0.8200 A=    0.0000 R=    0.0000 C=    0.0000
 XYZ=   -9.3098   -5.5505    1.1288 Q=    0.4100 A=    0.0000 R=    0.0000 C=    0.0000
 XYZ=   -8.0132   -4.6047    1.4303 Q=    0.4100 A=    0.0000 R=    0.0000 C=    0.0000
 XYZ=   -7.3224   -0.0277    6.1244 Q=   -0.8200 A=    0.0000 R=    0.0000 C=    0.0000
 XYZ=   -7.9161   -0.6850    5.6600 Q=    0.4100 A=    0.0000 R=    0.0000 C=    0.0000
 XYZ=   -6.4350   -0.4511    6.3070 Q=    0.4100 A=    0.0000 R=    0.0000 C=    0.0000
 XYZ=    6.5542    0.1036   -7.1783 Q=   -0.8200 A=    0.0000 R=    0.0000 C=    0.0000
 XYZ=    6.8730    0.5456   -6.3398 Q=    0.4100 A=    0.0000 R=    0.0000 C=    0.0000
 XYZ=    5.6355   -0.2637   -7.0328 Q=    0.4100 A=    0.0000 R=    0.0000 C=    0.0000
 XYZ=   -9.2273    2.8294   -3.6172 Q=   -0.8200 A=    0.0000 R=    0.0000 C=    0.0000
 XYZ=   -9.6363    2.9919   -2.7192 Q=    0.4100 A=    0.0000 R=    0.0000 C=    0.0000
 XYZ=   -9.9501    2.6545   -4.2859 Q=    0.4100 A=    0.0000 R=    0.0000 C=    0.0000
 XYZ=   -3.5570    9.5222   -3.6583 Q=   -0.8200 A=    0.0000 R=    0.0000 C=    0.0000
 XYZ=   -3.6526    9.5735   -2.6642 Q=    0.4100 A=    0.0000 R=    0.0000 C=    0.0000
 XYZ=   -3.2718    8.5997   -3.9186 Q=    0.4100 A=    0.0000 R=    0.0000 C=    0.0000
 XYZ=   -9.1136    4.9247   -0.5821 Q=   -0.8200 A=    0.0000 R=    0.0000 C=    0.0000
 XYZ=   -8.5626    5.5160   -1.1711 Q=    0.4100 A=    0.0000 R=    0.0000 C=    0.0000
 XYZ=   -8.7797    4.9867    0.3585 Q=    0.4100 A=    0.0000 R=    0.0000 C=    0.0000
 XYZ=   10.2552    0.0983   -3.0938 Q=   -0.8200 A=    0.0000 R=    0.0000 C=    0.0000
 XYZ=    9.5067    0.0301   -2.4341 Q=    0.4100 A=    0.0000 R=    0.0000 C=    0.0000
 XYZ=   11.1096   -0.1865   -2.6592 Q=    0.4100 A=    0.0000 R=    0.0000 C=    0.0000
 XYZ=   -9.9940    2.7613   -1.2356 Q=   -0.8200 A=    0.0000 R=    0.0000 C=    0.0000
 XYZ=  -10.9927    2.8118   -1.2340 Q=    0.4100 A=    0.0000 R=    0.0000 C=    0.0000
 XYZ=   -9.6155    3.6389   -0.9411 Q=    0.4100 A=    0.0000 R=    0.0000 C=    0.0000
 XYZ=   -2.0455   -0.5157   -9.9192 Q=   -0.8200 A=    0.0000 R=    0.0000 C=    0.0000
 XYZ=   -1.7628   -1.4734   -9.9733 Q=    0.4100 A=    0.0000 R=    0.0000 C=    0.0000
 XYZ=   -2.6644   -0.3943   -9.1432 Q=    0.4100 A=    0.0000 R=    0.0000 C=    0.0000
 XYZ=   -1.9619    1.1038    9.1297 Q=   -0.8200 A=    0.0000 R=    0.0000 C=    0.0000
 XYZ=   -1.7276    0.2349    8.6936 Q=    0.4100 A=    0.0000 R=    0.0000 C=    0.0000
 XYZ=   -2.5979    0.9377    9.8833 Q=    0.4100 A=    0.0000 R=    0.0000 C=    0.0000
 XYZ=    8.9348   -0.8687   -4.7653 Q=   -0.8200 A=    0.0000 R=    0.0000 C=    0.0000
 XYZ=    9.7781   -0.5748   -4.3153 Q=    0.4100 A=    0.0000 R=    0.0000 C=    0.0000
 XYZ=    8.5672   -1.6702   -4.2936 Q=    0.4100 A=    0.0000 R=    0.0000 C=    0.0000
 XYZ=    6.4755    3.9187   -6.3032 Q=   -0.8200 A=    0.0000 R=    0.0000 C=    0.0000
 XYZ=    6.7951    4.6943   -6.8475 Q=    0.4100 A=    0.0000 R=    0.0000 C=    0.0000
 XYZ=    7.1747    3.6717   -5.6324 Q=    0.4100 A=    0.0000 R=    0.0000 C=    0.0000
 XYZ=   -4.9047    6.7041    5.1019 Q=   -0.8200 A=    0.0000 R=    0.0000 C=    0.0000
 XYZ=   -5.5621    6.8788    5.8349 Q=    0.4100 A=    0.0000 R=    0.0000 C=    0.0000
 XYZ=   -5.2958    6.0525    4.4519 Q=    0.4100 A=    0.0000 R=    0.0000 C=    0.0000
 XYZ=    0.6416   10.0239   -1.3069 Q=   -0.8200 A=    0.0000 R=    0.0000 C=    0.0000
 XYZ=    0.2812   10.2804   -2.2037 Q=    0.4100 A=    0.0000 R=    0.0000 C=    0.0000
 XYZ=    1.5242    9.5676   -1.4205 Q=    0.4100 A=    0.0000 R=    0.0000 C=    0.0000
 XYZ=   10.4804    2.6122    1.4096 Q=   -0.8200 A=    0.0000 R=    0.0000 C=    0.0000
 XYZ=    9.7081    2.0747    1.7482 Q=    0.4100 A=    0.0000 R=    0.0000 C=    0.0000
 XYZ=   10.1623    3.5227    1.1451 Q=    0.4100 A=    0.0000 R=    0.0000 C=    0.0000
 XYZ=    8.8770    3.5691    4.8647 Q=   -0.8200 A=    0.0000 R=    0.0000 C=    0.0000
 XYZ=    8.1579    2.9219    4.6116 Q=    0.4100 A=    0.0000 R=    0.0000 C=    0.0000
 XYZ=    9.6444    3.0727    5.2705 Q=    0.4100 A=    0.0000 R=    0.0000 C=    0.0000
 XYZ=   -6.5670   -4.4990   -5.4433 Q=   -0.8200 A=    0.0000 R=    0.0000 C=    0.0000
 XYZ=   -6.2297   -3.7816   -6.0529 Q=    0.4100 A=    0.0000 R=    0.0000 C=    0.0000
 XYZ=   -7.4588   -4.8173   -5.7647 Q=    0.4100 A=    0.0000 R=    0.0000 C=    0.0000
 XYZ=    3.7684   -4.5519   -7.6658 Q=   -0.8200 A=    0.0000 R=    0.0000 C=    0.0000
 XYZ=    4.4770   -4.4344   -8.3616 Q=    0.4100 A=    0.0000 R=    0.0000 C=    0.0000
 XYZ=    3.8192   -3.8003   -7.0081 Q=    0.4100 A=    0.0000 R=    0.0000 C=    0.0000
 XYZ=   -7.2322   -4.9970    5.1864 Q=   -0.8200 A=    0.0000 R=    0.0000 C=    0.0000
 XYZ=   -8.0250   -5.1022    4.5860 Q=    0.4100 A=    0.0000 R=    0.0000 C=    0.0000
 XYZ=   -6.9097   -4.0511    5.1497 Q=    0.4100 A=    0.0000 R=    0.0000 C=    0.0000
 XYZ=   -1.9305   -6.6063    6.6493 Q=   -0.8200 A=    0.0000 R=    0.0000 C=    0.0000
 XYZ=   -1.8649   -6.1259    7.5239 Q=    0.4100 A=    0.0000 R=    0.0000 C=    0.0000
 XYZ=   -2.8625   -6.9470    6.5252 Q=    0.4100 A=    0.0000 R=    0.0000 C=    0.0000
 XYZ=    8.1183   -6.1010    2.3581 Q=   -0.8200 A=    0.0000 R=    0.0000 C=    0.0000
 XYZ=    8.4547   -5.1757    2.1827 Q=    0.4100 A=    0.0000 R=    0.0000 C=    0.0000
 XYZ=    7.1502   -6.0623    2.6055 Q=    0.4100 A=    0.0000 R=    0.0000 C=    0.0000
 XYZ=    5.6343    2.4368   -8.0742 Q=   -0.8200 A=    0.0000 R=    0.0000 C=    0.0000
 XYZ=    6.0743    2.9313   -7.3245 Q=    0.4100 A=    0.0000 R=    0.0000 C=    0.0000
 XYZ=    5.8962    1.4724   -8.0363 Q=    0.4100 A=    0.0000 R=    0.0000 C=    0.0000
 XYZ=    5.4059    8.2671    0.0448 Q=   -0.8200 A=    0.0000 R=    0.0000 C=    0.0000
 XYZ=    4.5961    8.5500    0.5590 Q=    0.4100 A=    0.0000 R=    0.0000 C=    0.0000
 XYZ=    6.2030    8.2732    0.6485 Q=    0.4100 A=    0.0000 R=    0.0000 C=    0.0000
 XYZ=   -9.4339    5.1116   -5.0117 Q=   -0.8200 A=    0.0000 R=    0.0000 C=    0.0000
 XYZ=   -8.9380    5.0395   -5.8771 Q=    0.4100 A=    0.0000 R=    0.0000 C=    0.0000
 XYZ=   -9.1210    4.3955   -4.3876 Q=    0.4100 A=    0.0000 R=    0.0000 C=    0.0000
 XYZ=   -0.7291   -5.6268   -7.4950 Q=   -0.8200 A=    0.0000 R=    0.0000 C=    0.0000
 XYZ=   -0.3219   -5.1854   -6.6953 Q=    0.4100 A=    0.0000 R=    0.0000 C=    0.0000
 XYZ=   -1.5575   -6.1151   -7.2204 Q=    0.4100 A=    0.0000 R=    0.0000 C=    0.0000
 XYZ=    7.8030    6.0879   -2.2420 Q=   -0.8200 A=    0.0000 R=    0.0000 C=    0.0000
 XYZ=    8.2020    5.3388   -1.7131 Q=    0.4100 A=    0.0000 R=    0.0000 C=    0.0000
 XYZ=    8.0092    6.9583   -1.7949 Q=    0.4100 A=    0.0000 R=    0.0000 C=    0.0000
 XYZ=   10.5425   -2.6729    1.8218 Q=   -0.8200 A=    0.0000 R=    0.0000 C=    0.0000
 XYZ=    9.6703   -3.1175    2.0258 Q=    0.4100 A=    0.0000 R=    0.0000 C=    0.0000
 XYZ=   11.0495   -3.2227    1.1580 Q=    0.4100 A=    0.0000 R=    0.0000 C=    0.0000
 XYZ=   -3.4736    9.7664   -1.3732 Q=   -0.8200 A=    0.0000 R=    0.0000 C=    0.0000
 XYZ=   -4.0907   10.2590   -0.7596 Q=    0.4100 A=    0.0000 R=    0.0000 C=    0.0000
 XYZ=   -2.5438    9.7975   -1.0062 Q=    0.4100 A=    0.0000 R=    0.0000 C=    0.0000
 XYZ=    4.1627   -1.0240   -9.5414 Q=   -0.8200 A=    0.0000 R=    0.0000 C=    0.0000
 XYZ=    4.3337   -0.7660   -8.5905 Q=    0.4100 A=    0.0000 R=    0.0000 C=    0.0000
 XYZ=    5.0019   -1.3906   -9.9432 Q=    0.4100 A=    0.0000 R=    0.0000 C=    0.0000
 XYZ=   -5.6500   -7.6781    0.1541 Q=   -0.8200 A=    0.0000 R=    0.0000 C=    0.0000
 XYZ=   -6.0707   -7.5840    1.0564 Q=    0.4100 A=    0.0000 R=    0.0000 C=    0.0000
 XYZ=   -6.0587   -8.4551   -0.3247 Q=    0.4100 A=    0.0000 R=    0.0000 C=    0.0000
 XYZ=   -6.3700   -7.3538   -3.2744 Q=   -0.8200 A=    0.0000 R=    0.0000 C=    0.0000
 XYZ=   -6.6518   -6.4764   -2.8861 Q=    0.4100 A=    0.0000 R=    0.0000 C=    0.0000
 XYZ=   -7.1784   -7.9163   -3.4482 Q=    0.4100 A=    0.0000 R=    0.0000 C=    0.0000
 XYZ=    1.0935    7.0964    6.1428 Q=   -0.8200 A=    0.0000 R=    0.0000 C=    0.0000
 XYZ=    1.5806    6.7335    5.3484 Q=    0.4100 A=    0.0000 R=    0.0000 C=    0.0000
 XYZ=    1.0137    6.3832    6.8393 Q=    0.4100 A=    0.0000 R=    0.0000 C=    0.0000
 XYZ=   -6.0921   -3.1924   -7.3335 Q=   -0.8200 A=    0.0000 R=    0.0000 C=    0.0000
 XYZ=   -5.3139   -3.4829   -7.8903 Q=    0.4100 A=    0.0000 R=    0.0000 C=    0.0000
 XYZ=   -6.3695   -2.2704   -7.6037 Q=    0.4100 A=    0.0000 R=    0.0000 C=    0.0000
 XYZ=   -1.5347   -5.0649    8.4835 Q=   -0.8200 A=    0.0000 R=    0.0000 C=    0.0000
 XYZ=   -0.6516   -4.6541    8.7103 Q=    0.4100 A=    0.0000 R=    0.0000 C=    0.0000
 XYZ=   -2.2714   -4.4806    8.8242 Q=    0.4100 A=    0.0000 R=    0.0000 C=    0.0000
 XYZ=  -10.2218    1.8952    3.3664 Q=   -0.8200 A=    0.0000 R=    0.0000 C=    0.0000
 XYZ=   -9.3153    1.8135    3.7807 Q=    0.4100 A=    0.0000 R=    0.0000 C=    0.0000
 XYZ=  -10.3520    1.1594    2.7018 Q=    0.4100 A=    0.0000 R=    0.0000 C=    0.0000
 XYZ=    7.3829    7.0137    2.9646 Q=   -0.8200 A=    0.0000 R=    0.0000 C=    0.0000
 XYZ=    6.4770    6.6485    3.1794 Q=    0.4100 A=    0.0000 R=    0.0000 C=    0.0000
 XYZ=    8.0257    6.2580    2.8388 Q=    0.4100 A=    0.0000 R=    0.0000 C=    0.0000
 XYZ=   -5.1850   -6.4172   -5.5986 Q=   -0.8200 A=    0.0000 R=    0.0000 C=    0.0000
 XYZ=   -5.5763   -5.4985   -5.6536 Q=    0.4100 A=    0.0000 R=    0.0000 C=    0.0000
 XYZ=   -5.4998   -6.8639   -4.7611 Q=    0.4100 A=    0.0000 R=    0.0000 C=    0.0000
 XYZ=    1.1872    5.4139    7.8585 Q=   -0.8200 A=    0.0000 R=    0.0000 C=    0.0000
 XYZ=    1.5714    5.6109    8.7606 Q=    0.4100 A=    0.0000 R=    0.0000 C=    0.0000
 XYZ=    1.3937    4.4681    7.6077 Q=    0.4100 A=    0.0000 R=    0.0000 C=    0.0000
 XYZ=   -7.7272    6.7143    3.3748 Q=   -0.8200 A=    0.0000 R=    0.0000 C=    0.0000
 XYZ=   -8.1642    6.3809    4.2102 Q=    0.4100 A=    0.0000 R=    0.0000 C=    0.0000
 XYZ=   -8.0356    6.1676    2.5963 Q=    0.4100 A=    0.0000 R=    0.0000 C=    0.0000
 XYZ=   -0.3501   -2.1202   10.1057 Q=   -0.8200 A=    0.0000 R=    0.0000 C=    0.0000
 XYZ=    0.1053   -2.7836    9.5119 Q=    0.4100 A=    0.0000 R=    0.0000 C=    0.0000
 XYZ=   -1.1911   -2.5207   10.4695 Q=    0.4100 A=    0.0000 R=    0.0000 C=    0.0000
 XYZ=   -2.9776    3.0518  -10.6810 Q=   -0.8200 A=    0.0000 R=    0.0000 C=    0.0000
 XYZ=   -2.4704    3.0795   -9.8196 Q=    0.4100 A=    0.0000 R=    0.0000 C=    0.0000
 XYZ=   -2.9852    2.1159  -11.0332 Q=    0.4100 A=    0.0000 R=    0.0000 C=    0.0000
 XYZ=   -8.4396    4.9074   -7.1901 Q=   -0.8200 A=    0.0000 R=    0.0000 C=    0.0000
 XYZ=   -8.6503    5.7507   -7.6845 Q=    0.4100 A=    0.0000 R=    0.0000 C=    0.0000
 XYZ=   -7.4543    4.8537   -7.0276 Q=    0.4100 A=    0.0000 R=    0.0000 C=    0.0000
 XYZ=   -3.0233   -9.7792    2.9562 Q=   -0.8200 A=    0.0000 R=    0.0000 C=    0.0000
 XYZ=   -2.4003   -9.0556    3.2534 Q=    0.4100 A=    0.0000 R=    0.0000 C=    0.0000
 XYZ=   -2.9510   -9.8951    1.9655 Q=    0.4100 A=    0.0000 R=    0.0000 C=    0.0000
 XYZ=    8.3428    3.5618   -4.8711 Q=   -0.8200 A=    0.0000 R=    0.0000 C=    0.0000
 XYZ=    8.4357    4.5148   -4.5825 Q=    0.4100 A=    0.0000 R=    0.0000 C=    0.0000
 XYZ=    9.1624    3.0526   -4.6082 Q=    0.4100 A=    0.0000 R=    0.0000 C=    0.0000
 XYZ=    0.3424    0.2228  -10.2618 Q=   -0.8200 A=    0.0000 R=    0.0000 C=    0.0000
 XYZ=    1.0174   -0.4177   -9.8954 Q=    0.4100 A=    0.0000 R=    0.0000 C=    0.0000
 XYZ=   -0.5727   -0.0531   -9.9678 Q=    0.4100 A=    0.0000 R=    0.0000 C=    0.0000
 XYZ=   -3.2160    6.3402   -8.4309 Q=   -0.8200 A=    0.0000 R=    0.0000 C=    0.0000
 XYZ=   -2.9709    7.2192   -8.8400 Q=    0.4100 A=    0.0000 R=    0.0000 C=    0.0000
 XYZ=   -4.1659    6.1219   -8.6546 Q=    0.4100 A=    0.0000 R=    0.0000 C=    0.0000
 XYZ=   -7.2131   -7.2353    1.8151 Q=   -0.8200 A=    0.0000 R=    0.0000 C=    0.0000
 XYZ=   -7.7119   -6.3792    1.9504 Q=    0.4100 A=    0.0000 R=    0.0000 C=    0.0000
 XYZ=   -6.9906   -7.6355    2.7041 Q=    0.4100 A=    0.0000 R=    0.0000 C=    0.0000
 XYZ=    1.1768    3.8457  -10.7420 Q=   -0.8200 A=    0.0000 R=    0.0000 C=    0.0000
 XYZ=    0.7402    3.8721   -9.8427 Q=    0.4100 A=    0.0000 R=    0.0000 C=    0.0000
 XYZ=    1.6890    4.6920  -10.8887 Q=    0.4100 A=    0.0000 R=    0.0000 C=    0.0000
 XYZ=    9.5970    4.8714    0.7932 Q=   -0.8200 A=    0.0000 R=    0.0000 C=    0.0000
 XYZ=    9.1622    5.0221    1.6810 Q=    0.4100 A=    0.0000 R=    0.0000 C=    0.0000
 XYZ=   10.4037    5.4570    0.7134 Q=    0.4100 A=    0.0000 R=    0.0000 C=    0.0000
 XYZ=    2.1168    1.7665  -10.1058 Q=   -0.8200 A=    0.0000 R=    0.0000 C=    0.0000
 XYZ=    1.7217    2.6661  -10.2919 Q=    0.4100 A=    0.0000 R=    0.0000 C=    0.0000
 XYZ=    1.4161    1.0633  -10.2264 Q=    0.4100 A=    0.0000 R=    0.0000 C=    0.0000
 XYZ=    5.2534    2.6104    8.0720 Q=   -0.8200 A=    0.0000 R=    0.0000 C=    0.0000
 XYZ=    6.0700    2.9189    7.5842 Q=    0.4100 A=    0.0000 R=    0.0000 C=    0.0000
 XYZ=    4.9436    3.3311    8.6923 Q=    0.4100 A=    0.0000 R=    0.0000 C=    0.0000
 XYZ=   -0.6422    3.0358    9.2792 Q=   -0.8200 A=    0.0000 R=    0.0000 C=    0.0000
 XYZ=   -1.2135    2.2189    9.1986 Q=    0.4100 A=    0.0000 R=    0.0000 C=    0.0000
 XYZ=   -0.5932    3.3150   10.2382 Q=    0.4100 A=    0.0000 R=    0.0000 C=    0.0000
 XYZ=  -11.6981   -0.1057   -1.7468 Q=   -0.8200 A=    0.0000 R=    0.0000 C=    0.0000
 XYZ=  -12.1951    0.7592   -1.8182 Q=    0.4100 A=    0.0000 R=    0.0000 C=    0.0000
 XYZ=  -10.8141    0.0532   -1.3071 Q=    0.4100 A=    0.0000 R=    0.0000 C=    0.0000
 XYZ=   -3.5463    8.5649    4.2752 Q=   -0.8200 A=    0.0000 R=    0.0000 C=    0.0000
 XYZ=   -4.0774    7.7949    4.6289 Q=    0.4100 A=    0.0000 R=    0.0000 C=    0.0000
 XYZ=   -3.9730    9.4231    4.5605 Q=    0.4100 A=    0.0000 R=    0.0000 C=    0.0000
 XYZ=    9.9153    2.1954   -3.9834 Q=   -0.8200 A=    0.0000 R=    0.0000 C=    0.0000
 XYZ=   10.3519    2.7928   -3.3107 Q=    0.4100 A=    0.0000 R=    0.0000 C=    0.0000
 XYZ=   10.0472    1.2407   -3.7166 Q=    0.4100 A=    0.0000 R=    0.0000 C=    0.0000
 XYZ=   -2.8131   -6.7270   -6.7668 Q=   -0.8200 A=    0.0000 R=    0.0000 C=    0.0000
 XYZ=   -3.1841   -7.1053   -7.6149 Q=    0.4100 A=    0.0000 R=    0.0000 C=    0.0000
 XYZ=   -3.5631   -6.5164   -6.1397 Q=    0.4100 A=    0.0000 R=    0.0000 C=    0.0000
 XYZ=   10.5740    3.8180   -2.3905 Q=   -0.8200 A=    0.0000 R=    0.0000 C=    0.0000
 XYZ=    9.7371    4.1304   -1.9410 Q=    0.4100 A=    0.0000 R=    0.0000 C=    0.0000
 XYZ=   11.0656    3.1941   -1.7829 Q=    0.4100 A=    0.0000 R=    0.0000 C=    0.0000
 XYZ=    8.7740   -4.8450   -3.5273 Q=   -0.8200 A=    0.0000 R=    0.0000 C=    0.0000
 XYZ=    8.5964   -4.7099   -4.5021 Q=    0.4100 A=    0.0000 R=    0.0000 C=    0.0000
 XYZ=    9.6756   -5.2604   -3.4072 Q=    0.4100 A=    0.0000 R=    0.0000 C=    0.0000
 XYZ=    8.7958    5.7982   -4.2652 Q=   -0.8200 A=    0.0000 R=    0.0000 C=    0.0000
 XYZ=    8.3152    5.8273   -3.3887 Q=    0.4100 A=    0.0000 R=    0.0000 C=    0.0000
 XYZ=    9.7753    5.9299   -4.1127 Q=    0.4100 A=    0.0000 R=    0.0000 C=    0.0000
 XYZ=   -7.1110   -1.1413   -8.3601 Q=   -0.8200 A=    0.0000 R=    0.0000 C=    0.0000
 XYZ=   -7.9187   -0.5770   -8.5307 Q=    0.4100 A=    0.0000 R=    0.0000 C=    0.0000
 XYZ=   -7.0903   -1.8994   -9.0120 Q=    0.4100 A=    0.0000 R=    0.0000 C=    0.0000
 XYZ=    2.9599   -6.4165   -6.4013 Q=   -0.8200 A=    0.0000 R=    0.0000 C=    0.0000
 XYZ=    3.3951   -5.6924   -6.9364 Q=    0.4100 A=    0.0000 R=    0.0000 C=    0.0000
 XYZ=    3.5405   -7.2306   -6.4079 Q=    0.4100 A=    0.0000 R=    0.0000 C=    0.0000
 XYZ=    0.5090   -3.3365   -9.1339 Q=   -0.8200 A=    0.0000 R=    0.0000 C=    0.0000
 XYZ=    1.0067   -2.7209   -9.7450 Q=    0.4100 A=    0.0000 R=    0.0000 C=    0.0000
 XYZ=    1.0409   -4.1722   -8.9972 Q=    0.4100 A=    0.0000 R=    0.0000 C=    0.0000
 XYZ=    8.3879   -7.3985    0.4345 Q=   -0.8200 A=    0.0000 R=    0.0000 C=    0.0000
 XYZ=    8.1390   -6.8047    1.1996 Q=    0.4100 A=    0.0000 R=    0.0000 C=    0.0000
 XYZ=    8.7910   -8.2436    0.7858 Q=    0.4100 A=    0.0000 R=    0.0000 C=    0.0000
 XYZ=   -4.2677   -7.1660    6.8037 Q=   -0.8200 A=    0.0000 R=    0.0000 C=    0.0000
 XYZ=   -4.7794   -6.7498    6.0521 Q=    0.4100 A=    0.0000 R=    0.0000 C=    0.0000
 XYZ=   -4.4862   -6.6937    7.6576 Q=    0.4100 A=    0.0000 R=    0.0000 C=    0.0000
 XYZ=    6.3756    0.7692    8.9404 Q=   -0.8200 A=    0.0000 R=    0.0000 C=    0.0000
 XYZ=    5.9100    1.4267    8.3479 Q=    0.4100 A=    0.0000 R=    0.0000 C=    0.0000
 XYZ=    7.2201    1.1752    9.2896 Q=    0.4100 A=    0.0000 R=    0.0000 C=    0.0000
 XYZ=    7.0879    3.7375    6.9998 Q=   -0.8200 A=    0.0000 R=    0.0000 C=    0.0000
 XYZ=    7.8022    3.4944    6.3436 Q=    0.4100 A=    0.0000 R=    0.0000 C=    0.0000
 XYZ=    7.5049    4.1559    7.8067 Q=    0.4100 A=    0.0000 R=    0.0000 C=    0.0000
 XYZ=    6.4139   -3.5895   -7.1522 Q=   -0.8200 A=    0.0000 R=    0.0000 C=    0.0000
 XYZ=    7.1137   -4.0960   -6.6486 Q=    0.4100 A=    0.0000 R=    0.0000 C=    0.0000
 XYZ=    6.1514   -4.1051   -7.9679 Q=    0.4100 A=    0.0000 R=    0.0000 C=    0.0000
 XYZ=   12.0288   -0.0532   -0.6008 Q=   -0.8200 A=    0.0000 R=    0.0000 C=    0.0000
 XYZ=   12.8427   -0.3660   -0.1112 Q=    0.4100 A=    0.0000 R=    0.0000 C=    0.0000
 XYZ=   11.2186   -0.2136   -0.0371 Q=    0.4100 A=    0.0000 R=    0.0000 C=    0.0000
 XYZ=   -2.4830   -9.8742    0.6655 Q=   -0.8200 A=    0.0000 R=    0.0000 C=    0.0000
 XYZ=   -1.9266  -10.6013    1.0676 Q=    0.4100 A=    0.0000 R=    0.0000 C=    0.0000
 XYZ=   -2.8705  -10.1911   -0.2003 Q=    0.4100 A=    0.0000 R=    0.0000 C=    0.0000
 XYZ=   -8.3828    1.7287    7.4338 Q=   -0.8200 A=    0.0000 R=    0.0000 C=    0.0000
 XYZ=   -7.9340    1.0246    6.8834 Q=    0.4100 A=    0.0000 R=    0.0000 C=    0.0000
 XYZ=   -8.2350    2.6243    7.0142 Q=    0.4100 A=    0.0000 R=    0.0000 C=    0.0000
 XYZ=   -2.1543    9.8521    2.9027 Q=   -0.8200 A=    0.0000 R=    0.0000 C=    0.0000
 XYZ=   -2.8129    9.2981    3.4121 Q=    0.4100 A=    0.0000 R=    0.0000 C=    0.0000
 XYZ=   -2.6129   10.6612    2.5353 Q=    0.4100 A=    0.0000 R=    0.0000 C=    0.0000
 XYZ=    1.9067   -1.7907  -10.2159 Q=   -0.8200 A=    0.0000 R=    0.0000 C=    0.0000
 XYZ=    2.7744   -1.4733   -9.8333 Q=    0.4100 A=    0.0000 R=    0.0000 C=    0.0000
 XYZ=    1.9833   -1.8503  -11.2112 Q=    0.4100 A=    0.0000 R=    0.0000 C=    0.0000
 XYZ=   -0.6103    6.3551  -10.2324 Q=   -0.8200 A=    0.0000 R=    0.0000 C=    0.0000
 XYZ=   -0.9058    5.7358  -10.9599 Q=    0.4100 A=    0.0000 R=    0.0000 C=    0.0000
 XYZ=   -0.1907    5.8264   -9.4946 Q=    0.4100 A=    0.0000 R=    0.0000 C=    0.0000
 XYZ=   -0.1319   10.5219   -3.4420 Q=   -0.8200 A=    0.0000 R=    0.0000 C=    0.0000
 XYZ=   -1.0624   10.8714   -3.5512 Q=    0.4100 A=    0.0000 R=    0.0000 C=    0.0000
 XYZ=    0.2801   10.3838   -4.3427 Q=    0.4100 A=    0.0000 R=    0.0000 C=    0.0000
 XYZ=   -6.5759   -8.0610    3.9539 Q=   -0.8200 A=    0.0000 R=    0.0000 C=    0.0000
 XYZ=   -6.0864   -7.2597    4.2978 Q=    0.4100 A=    0.0000 R=    0.0000 C=    0.0000
 XYZ=   -5.9470   -8.8365    3.8964 Q=    0.4100 A=    0.0000 R=    0.0000 C=    0.0000
 XYZ=   -8.2240    5.7867    5.4082 Q=   -0.8200 A=    0.0000 R=    0.0000 C=    0.0000
 XYZ=   -7.5982    5.0070    5.4344 Q=    0.4100 A=    0.0000 R=    0.0000 C=    0.0000
 XYZ=   -7.8310    6.5470    5.9254 Q=    0.4100 A=    0.0000 R=    0.0000 C=    0.0000
 XYZ=    5.5672    5.7901    7.0331 Q=   -0.8200 A=    0.0000 R=    0.0000 C=    0.0000
 XYZ=    6.2600    6.5007    6.9107 Q=    0.4100 A=    0.0000 R=    0.0000 C=    0.0000
 XYZ=    6.0108    4.8945    7.0674 Q=    0.4100 A=    0.0000 R=    0.0000 C=    0.0000
 XYZ=    7.3400   -1.7599   -8.2779 Q=   -0.8200 A=    0.0000 R=    0.0000 C=    0.0000
 XYZ=    6.9864   -0.9450   -7.8187 Q=    0.4100 A=    0.0000 R=    0.0000 C=    0.0000
 XYZ=    6.9753   -2.5779   -7.8329 Q=    0.4100 A=    0.0000 R=    0.0000 C=    0.0000
 XYZ=   -3.6706   -3.9223    9.0250 Q=   -0.8200 A=    0.0000 R=    0.0000 C=    0.0000
 XYZ=   -4.1515   -4.7964    8.9575 Q=    0.4100 A=    0.0000 R=    0.0000 C=    0.0000
 XYZ=   -3.2668   -3.8336    9.9356 Q=    0.4100 A=    0.0000 R=    0.0000 C=    0.0000
 XYZ=   -1.3622    5.0319    8.4004 Q=   -0.8200 A=    0.0000 R=    0.0000 C=    0.0000
 XYZ=   -0.4576    5.4082    8.2002 Q=    0.4100 A=    0.0000 R=    0.0000 C=    0.0000
 XYZ=   -1.2642    4.1097    8.7746 Q=    0.4100 A=    0.0000 R=    0.0000 C=    0.0000
 XYZ=  -10.3838    4.0866    2.6001 Q=   -0.8200 A=    0.0000 R=    0.0000 C=    0.0000
 XYZ=  -10.9247    4.0177    1.7619 Q=    0.4100 A=    0.0000 R=    0.0000 C=    0.0000
 XYZ=  -10.2468    3.1736    2.9844 Q=    0.4100 A=    0.0000 R=    0.0000 C=    0.0000
 XYZ=   -5.3386    5.7722   -8.9440 Q=   -0.8200 A=    0.0000 R=    0.0000 C=    0.0000
 XYZ=   -5.9087    6.4388   -9.4242 Q=    0.4100 A=    0.0000 R=    0.0000 C=    0.0000
 XYZ=   -5.2307    4.9558   -9.5114 Q=    0.4100 A=    0.0000 R=    0.0000 C=    0.0000
 XYZ=   -9.3719   -5.1869    3.9683 Q=   -0.8200 A=    0.0000 R=    0.0000 C=    0.0000
 XYZ=   -9.2349   -5.2564    2.9801 Q=    0.4100 A=    0.0000 R=    0.0000 C=    0.0000
 XYZ=   -9.7632   -6.0409    4.3113 Q=    0.4100 A=    0.0000 R=    0.0000 C=    0.0000
 XYZ=   -6.1469    9.4871    1.2713 Q=   -0.8200 A=    0.0000 R=    0.0000 C=    0.0000
 XYZ=   -6.8622    9.9615    0.7580 Q=    0.4100 A=    0.0000 R=    0.0000 C=    0.0000
 XYZ=   -6.4224    9.4055    2.2291 Q=    0.4100 A=    0.0000 R=    0.0000 C=    0.0000
 XYZ=    2.7920    3.2206   10.1549 Q=   -0.8200 A=    0.0000 R=    0.0000 C=    0.0000
 XYZ=    3.6791    3.6347    9.9508 Q=    0.4100 A=    0.0000 R=    0.0000 C=    0.0000
 XYZ=    2.2332    3.2042    9.3258 Q=    0.4100 A=    0.0000 R=    0.0000 C=    0.0000
 XYZ=    4.1895    0.5290    9.5874 Q=   -0.8200 A=    0.0000 R=    0.0000 C=    0.0000
 XYZ=    5.1862    0.6088    9.6041 Q=    0.4100 A=    0.0000 R=    0.0000 C=    0.0000
 XYZ=    3.7820    1.4423    9.5878 Q=    0.4100 A=    0.0000 R=    0.0000 C=    0.0000
 XYZ=   -3.0048    0.8808  -11.5047 Q=   -0.8200 A=    0.0000 R=    0.0000 C=    0.0000
 XYZ=   -2.6205    0.3082  -10.7805 Q=    0.4100 A=    0.0000 R=    0.0000 C=    0.0000
 XYZ=   -3.9884    0.7145  -11.5745 Q=    0.4100 A=    0.0000 R=    0.0000 C=    0.0000
 XYZ=    7.0265    7.1567   -5.5117 Q=   -0.8200 A=    0.0000 R=    0.0000 C=    0.0000
 XYZ=    7.8212    6.8033   -5.0181 Q=    0.4100 A=    0.0000 R=    0.0000 C=    0.0000
 XYZ=    6.9104    6.6476   -6.3646 Q=    0.4100 A=    0.0000 R=    0.0000 C=    0.0000
 XYZ=   10.5093   -4.2459   -1.2077 Q=   -0.8200 A=    0.0000 R=    0.0000 C=    0.0000
 XYZ=   10.4726   -4.2452   -2.2071 Q=    0.4100 A=    0.0000 R=    0.0000 C=    0.0000
 XYZ=   10.4068   -5.1820   -0.8711 Q=    0.4100 A=    0.0000 R=    0.0000 C=    0.0000
 XYZ=   -2.2205   11.2971   -4.1713 Q=   -0.8200 A=    0.0000 R=    0.0000 C=    0.0000
 XYZ=   -2.4802   12.1200   -3.6659 Q=    0.4100 A=    0.0000 R=    0.0000 C=    0.0000
 XYZ=   -2.8462   10.5522   -3.9395 Q=    0.4100 A=    0.0000 R=    0.0000 C=    0.0000
 XYZ=  -12.0609   -1.1934    1.8563 Q=   -0.8200 A=    0.0000 R=    0.0000 C=    0.0000
 XYZ=  -11.3077   -0.5406    1.7751 Q=    0.4100 A=    0.0000 R=    0.0000 C=    0.0000
 XYZ=  -11.7602   -1.9847    2.3887 Q=    0.4100 A=    0.0000 R=    0.0000 C=    0.0000
 XYZ=   -1.5295   -2.8381  -10.1789 Q=   -0.8200 A=    0.0000 R=    0.0000 C=    0.0000
 XYZ=   -0.6640   -3.1524   -9.7888 Q=    0.4100 A=    0.0000 R=    0.0000 C=    0.0000
 XYZ=   -1.4349   -2.7475  -11.1703 Q=    0.4100 A=    0.0000 R=    0.0000 C=    0.0000
 XYZ=    9.8223   -2.8136   -6.2042 Q=   -0.8200 A=    0.0000 R=    0.0000 C=    0.0000
 XYZ=    9.4425   -1.9890   -5.7849 Q=    0.4100 A=    0.0000 R=    0.0000 C=    0.0000
 XYZ=   10.0709   -2.6206   -7.1534 Q=    0.4100 A=    0.0000 R=    0.0000 C=    0.0000
 XYZ=   11.9787    2.5285   -0.5770 Q=   -0.8200 A=    0.0000 R=    0.0000 C=    0.0000
 XYZ=   12.1936    1.5984   -0.8751 Q=    0.4100 A=    0.0000 R=    0.0000 C=    0.0000
 XYZ=   11.3627    2.4922    0.2100 Q=    0.4100 A=    0.0000 R=    0.0000 C=    0.0000
 XYZ=   -5.8133   -9.4159   -1.7615 Q=   -0.8200 A=    0.0000 R=    0.0000 C=    0.0000
 XYZ=   -6.5634  -10.0516   -1.9441 Q=    0.4100 A=    0.0000 R=    0.0000 C=    0.0000
 XYZ=   -5.9093   -8.6103   -2.3461 Q=    0.4100 A=    0.0000 R=    0.0000 C=    0.0000
 XYZ=    7.2921    8.4470    1.2031 Q=   -0.8200 A=    0.0000 R=    0.0000 C=    0.0000
 XYZ=    7.7283    9.3223    1.4118 Q=    0.4100 A=    0.0000 R=    0.0000 C=    0.0000
 XYZ=    7.4259    7.8171    1.9683 Q=    0.4100 A=    0.0000 R=    0.0000 C=    0.0000
 XYZ=   -8.7988    2.4974   -8.6047 Q=   -0.8200 A=    0.0000 R=    0.0000 C=    0.0000
 XYZ=   -9.3994    2.7718   -9.3557 Q=    0.4100 A=    0.0000 R=    0.0000 C=    0.0000
 XYZ=   -8.9632    3.0873   -7.8140 Q=    0.4100 A=    0.0000 R=    0.0000 C=    0.0000
 XYZ=   -4.8834   11.1213   -4.5502 Q=   -0.8200 A=    0.0000 R=    0.0000 C=    0.0000
 XYZ=   -4.3220   10.3592   -4.2277 Q=    0.4100 A=    0.0000 R=    0.0000 C=    0.0000
 XYZ=   -4.3932   11.6160   -5.2679 Q=    0.4100 A=    0.0000 R=    0.0000 C=    0.0000
 XYZ=    8.1460    8.3107   -1.0115 Q=   -0.8200 A=    0.0000 R=    0.0000 C=    0.0000
 XYZ=    7.3780    8.5626   -1.6002 Q=    0.4100 A=    0.0000 R=    0.0000 C=    0.0000
 XYZ=    7.8730    8.3950   -0.0532 Q=    0.4100 A=    0.0000 R=    0.0000 C=    0.0000
 XYZ=   -2.0282    8.9462    6.1136 Q=   -0.8200 A=    0.0000 R=    0.0000 C=    0.0000
 XYZ=   -2.5666    8.6442    5.3269 Q=    0.4100 A=    0.0000 R=    0.0000 C=    0.0000
 XYZ=   -2.5275    9.6598    6.6050 Q=    0.4100 A=    0.0000 R=    0.0000 C=    0.0000
 XYZ=    1.2583   -6.9097   -7.9943 Q=   -0.8200 A=    0.0000 R=    0.0000 C=    0.0000
 XYZ=    0.3587   -6.5059   -7.8277 Q=    0.4100 A=    0.0000 R=    0.0000 C=    0.0000
 XYZ=    1.9148   -6.5453   -7.3338 Q=    0.4100 A=    0.0000 R=    0.0000 C=    0.0000
 XYZ=    0.1787   10.0183    3.7415 Q=   -0.8200 A=    0.0000 R=    0.0000 C=    0.0000
 XYZ=   -0.7983    9.9601    3.5361 Q=    0.4100 A=    0.0000 R=    0.0000 C=    0.0000
 XYZ=    0.3505    9.6439    4.6528 Q=    0.4100 A=    0.0000 R=    0.0000 C=    0.0000
 XYZ=   -6.8315    9.2179    3.5173 Q=   -0.8200 A=    0.0000 R=    0.0000 C=    0.0000
 XYZ=   -7.0447    8.2429    3.5808 Q=    0.4100 A=    0.0000 R=    0.0000 C=    0.0000
 XYZ=   -6.6546    9.5806    4.4323 Q=    0.4100 A=    0.0000 R=    0.0000 C=    0.0000
 XYZ=    1.0549   11.8655    0.3853 Q=   -0.8200 A=    0.0000 R=    0.0000 C=    0.0000
 XYZ=    1.9835   12.2358    0.3580 Q=    0.4100 A=    0.0000 R=    0.0000 C=    0.0000
 XYZ=    0.8998   11.2951   -0.4213 Q=    0.4100 A=    0.0000 R=    0.0000 C=    0.0000
 XYZ=    8.2898   -4.4886   -6.0785 Q=   -0.8200 A=    0.0000 R=    0.0000 C=    0.0000
 XYZ=    9.0243   -3.8103   -6.0992 Q=    0.4100 A=    0.0000 R=    0.0000 C=    0.0000
 XYZ=    8.6331   -5.3623   -6.4233 Q=    0.4100 A=    0.0000 R=    0.0000 C=    0.0000
 XYZ=   -4.6781   11.0812    0.2738 Q=   -0.8200 A=    0.0000 R=    0.0000 C=    0.0000
 XYZ=   -5.1628   11.8968   -0.0424 Q=    0.4100 A=    0.0000 R=    0.0000 C=    0.0000
 XYZ=   -5.3332   10.4350    0.6653 Q=    0.4100 A=    0.0000 R=    0.0000 C=    0.0000
 XYZ=  -10.0273   -3.2540    4.7727 Q=   -0.8200 A=    0.0000 R=    0.0000 C=    0.0000
 XYZ=   -9.6870   -4.1515    4.4922 Q=    0.4100 A=    0.0000 R=    0.0000 C=    0.0000
 XYZ=  -10.7001   -3.3663    5.5040 Q=    0.4100 A=    0.0000 R=    0.0000 C=    0.0000
 XYZ=    0.3096    9.1656    6.0074 Q=   -0.8200 A=    0.0000 R=    0.0000 C=    0.0000
 XYZ=    0.6826    8.2380    6.0307 Q=    0.4100 A=    0.0000 R=    0.0000 C=    0.0000
 XYZ=   -0.6892    9.1240    6.0370 Q=    0.4100 A=    0.0000 R=    0.0000 C=    0.0000
 XYZ=   -5.2262    4.0208  -10.4838 Q=   -0.8200 A=    0.0000 R=    0.0000 C=    0.0000
 XYZ=   -5.8673    3.2571  -10.4076 Q=    0.4100 A=    0.0000 R=    0.0000 C=    0.0000
 XYZ=   -4.3130    3.6698  -10.6913 Q=    0.4100 A=    0.0000 R=    0.0000 C=    0.0000
 XYZ=   -4.9835   -4.2579   -9.0031 Q=   -0.8200 A=    0.0000 R=    0.0000 C=    0.0000
 XYZ=   -4.2232   -4.3660   -9.6436 Q=    0.4100 A=    0.0000 R=    0.0000 C=    0.0000
 XYZ=   -5.0133   -5.0439   -8.3855 Q=    0.4100 A=    0.0000 R=    0.0000 C=    0.0000
 XYZ=   -2.2177   -8.9154   -6.0835 Q=   -0.8200 A=    0.0000 R=    0.0000 C=    0.0000
 XYZ=   -2.3589   -7.9376   -6.2386 Q=    0.4100 A=    0.0000 R=    0.0000 C=    0.0000
 XYZ=   -2.2589   -9.4008   -6.9568 Q=    0.4100 A=    0.0000 R=    0.0000 C=    0.0000
 XYZ=   -6.7186    3.9534    7.7951 Q=   -0.8200 A=    0.0000 R=    0.0000 C=    0.0000
 XYZ=   -6.8180    3.3498    8.5862 Q=    0.4100 A=    0.0000 R=    0.0000 C=    0.0000
 XYZ=   -6.2033    4.7683    8.0603 Q=    0.4100 A=    0.0000 R=    0.0000 C=    0.0000
 XYZ=    2.0821   -5.2454   -9.3739 Q=   -0.8200 A=    0.0000 R=    0.0000 C=    0.0000
 XYZ=    1.8966   -6.1818   -9.0758 Q=    0.4100 A=    0.0000 R=    0.0000 C=    0.0000
 XYZ=    2.8197   -4.8592   -8.8199 Q=    0.4100 A=    0.0000 R=    0.0000 C=    0.0000
 XYZ=  -10.2868   -6.0393    0.2883 Q=   -0.8200 A=    0.0000 R=    0.0000 C=    0.0000
 XYZ=  -10.2834   -5.5338   -0.5746 Q=    0.4100 A=    0.0000 R=    0.0000 C=    0.0000
 XYZ=  -10.9216   -5.6043    0.9269 Q=    0.4100 A=    0.0000 R=    0.0000 C=    0.0000
 XYZ=   -5.4085   -6.4813   -7.8319 Q=   -0.8200 A=    0.0000 R=    0.0000 C=    0.0000
 XYZ=   -4.6843   -7.0360   -8.2415 Q=    0.4100 A=    0.0000 R=    0.0000 C=    0.0000
 XYZ=   -5.4061   -6.6095   -6.8402 Q=    0.4100 A=    0.0000 R=    0.0000 C=    0.0000
 XYZ=   -6.8497    2.1644  -10.4518 Q=   -0.8200 A=    0.0000 R=    0.0000 C=    0.0000
 XYZ=   -7.4584    2.2677   -9.6652 Q=    0.4100 A=    0.0000 R=    0.0000 C=    0.0000
 XYZ=   -7.3399    2.4124  -11.2874 Q=    0.4100 A=    0.0000 R=    0.0000 C=    0.0000
 XYZ=   -0.7922    1.1942  -12.1882 Q=   -0.8200 A=    0.0000 R=    0.0000 C=    0.0000
 XYZ=   -0.3433    0.9216  -11.3372 Q=    0.4100 A=    0.0000 R=    0.0000 C=    0.0000
 XYZ=   -1.7635    0.9606  -12.1423 Q=    0.4100 A=    0.0000 R=    0.0000 C=    0.0000
 XYZ=   -3.3978    6.5963    7.8256 Q=   -0.8200 A=    0.0000 R=    0.0000 C=    0.0000
 XYZ=   -3.1664    7.1863    7.0520 Q=    0.4100 A=    0.0000 R=    0.0000 C=    0.0000
 XYZ=   -2.6108    6.0236    8.0551 Q=    0.4100 A=    0.0000 R=    0.0000 C=    0.0000
 XYZ=   -7.1860   -4.7153    8.2237 Q=   -0.8200 A=    0.0000 R=    0.0000 C=    0.0000
 XYZ=   -6.9410   -4.9093    7.2737 Q=    0.4100 A=    0.0000 R=    0.0000 C=    0.0000
 XYZ=   -7.4102   -3.7454    8.3187 Q=    0.4100 A=    0.0000 R=    0.0000 C=    0.0000
 XYZ=   -5.2117    0.4569  -10.8252 Q=   -0.8200 A=    0.0000 R=    0.0000 C=    0.0000
 XYZ=   -5.9159    1.1564  -10.7033 Q=    0.4100 A=    0.0000 R=    0.0000 C=    0.0000
 XYZ=   -5.6215   -0.3623  -11.2264 Q=    0.4100 A=    0.0000 R=    0.0000 C=    0.0000
 XYZ=    7.3306    5.8750   -7.4251 Q=   -0.8200 A=    0.0000 R=    0.0000 C=    0.0000
 XYZ=    8.2986    6.1258   -7.4365 Q=    0.4100 A=    0.0000 R=    0.0000 C=    0.0000
 XYZ=    7.0386    5.6314   -8.3500 Q=    0.4100 A=    0.0000 R=    0.0000 C=    0.0000
 XYZ=  -11.6774   -3.1993    3.0754 Q=   -0.8200 A=    0.0000 R=    0.0000 C=    0.0000
 XYZ=  -10.8553   -3.1004    3.6361 Q=    0.4100 A=    0.0000 R=    0.0000 C=    0.0000
 XYZ=  -11.6649   -4.0895    2.6199 Q=    0.4100 A=    0.0000 R=    0.0000 C=    0.0000
 XYZ=   -8.6631   -5.0965   -6.2937 Q=   -0.8200 A=    0.0000 R=    0.0000 C=    0.0000
 XYZ=   -9.0873   -4.2628   -5.9401 Q=    0.4100 A=    0.0000 R=    0.0000 C=    0.0000
 XYZ=   -8.8707   -5.8609   -5.6832 Q=    0.4100 A=    0.0000 R=    0.0000 C=    0.0000
 XYZ=   10.3633   -6.7132   -0.9487 Q=   -0.8200 A=    0.0000 R=    0.0000 C=    0.0000
 XYZ=    9.5050   -6.9593   -0.4982 Q=    0.4100 A=    0.0000 R=    0.0000 C=    0.0000
 XYZ=   11.1209   -7.1950   -0.5082 Q=    0.4100 A=    0.0000 R=    0.0000 C=    0.0000
 XYZ=  -11.2427    2.7630   -5.1769 Q=   -0.8200 A=    0.0000 R=    0.0000 C=    0.0000
 XYZ=  -11.8347    3.0073   -4.4089 Q=    0.4100 A=    0.0000 R=    0.0000 C=    0.0000
 XYZ=  -11.5122    3.2867   -5.9851 Q=    0.4100 A=    0.0000 R=    0.0000 C=    0.0000
 XYZ=   -1.4673   -7.4094    9.6527 Q=   -0.8200 A=    0.0000 R=    0.0000 C=    0.0000
 XYZ=   -1.3555   -6.4268    9.5045 Q=    0.4100 A=    0.0000 R=    0.0000 C=    0.0000
 XYZ=   -1.4458   -7.8837    8.7726 Q=    0.4100 A=    0.0000 R=    0.0000 C=    0.0000
 XYZ=   12.2486   -1.9062    3.6328 Q=   -0.8200 A=    0.0000 R=    0.0000 C=    0.0000
 XYZ=   11.5848   -2.2103    2.9494 Q=    0.4100 A=    0.0000 R=    0.0000 C=    0.0000
 XYZ=   11.9005   -2.1078    4.5483 Q=    0.4100 A=    0.0000 R=    0.0000 C=    0.0000
 XYZ=   -9.1767   -8.2180    0.8501 Q=   -0.8200 A=    0.0000 R=    0.0000 C=    0.0000
 XYZ=   -9.6423   -7.4061    0.4977 Q=    0.4100 A=    0.0000 R=    0.0000 C=    0.0000
 XYZ=   -8.2802   -7.9585    1.2091 Q=    0.4100 A=    0.0000 R=    0.0000 C=    0.0000
 XYZ=   -9.0110    0.1371   -9.1457 Q=   -0.8200 A=    0.0000 R=    0.0000 C=    0.0000
 XYZ=   -9.8179   -0.2189   -8.6742 Q=    0.4100 A=    0.0000 R=    0.0000 C=    0.0000
 XYZ=   -8.8485    1.0820   -8.8612 Q=    0.4100 A=    0.0000 R=    0.0000 C=    0.0000
 XYZ=   12.4689    2.4996    2.8126 Q=   -0.8200 A=    0.0000 R=    0.0000 C=    0.0000
 XYZ=   12.8561    1.5785    2.7703 Q=    0.4100 A=    0.0000 R=    0.0000 C=    0.0000
 XYZ=   11.7074    2.5709    2.1683 Q=    0.4100 A=    0.0000 R=    0.0000 C=    0.0000
 XYZ=   -3.1782   -4.4346  -10.5910 Q=   -0.8200 A=    0.0000 R=    0.0000 C=    0.0000
 XYZ=   -3.3187   -4.2940  -11.5710 Q=    0.4100 A=    0.0000 R=    0.0000 C=    0.0000
 XYZ=   -2.5375   -3.7494  -10.2444 Q=    0.4100 A=    0.0000 R=    0.0000 C=    0.0000
 XYZ=   -1.5502   -5.9400   -9.7558 Q=   -0.8200 A=    0.0000 R=    0.0000 C=    0.0000
 XYZ=   -2.3529   -5.3815   -9.9652 Q=    0.4100 A=    0.0000 R=    0.0000 C=    0.0000
 XYZ=   -1.2197   -5.7178   -8.8385 Q=    0.4100 A=    0.0000 R=    0.0000 C=    0.0000
 XYZ=   -6.8948   -2.8533   -9.9637 Q=   -0.8200 A=    0.0000 R=    0.0000 C=    0.0000
 XYZ=   -6.1933   -3.3512   -9.4537 Q=    0.4100 A=    0.0000 R=    0.0000 C=    0.0000
 XYZ=   -7.5217   -3.5047  -10.3911 Q=    0.4100 A=    0.0000 R=    0.0000 C=    0.0000
 XYZ=    0.0879   -0.6840   12.2165 Q=   -0.8200 A=    0.0000 R=    0.0000 C=    0.0000
 XYZ=   -0.0648   -1.1476   11.3437 Q=    0.4100 A=    0.0000 R=    0.0000 C=    0.0000
 XYZ=   -0.7619   -0.2506   12.5167 Q=    0.4100 A=    0.0000 R=    0.0000 C=    0.0000
 XYZ=    3.6429    0.0328  -11.6774 Q=   -0.8200 A=    0.0000 R=    0.0000 C=    0.0000
 XYZ=    3.6836    1.0141  -11.4895 Q=    0.4100 A=    0.0000 R=    0.0000 C=    0.0000
 XYZ=    4.0201   -0.4713  -10.9005 Q=    0.4100 A=    0.0000 R=    0.0000 C=    0.0000
 XYZ=   -5.1364  -10.0379    4.1730 Q=   -0.8200 A=    0.0000 R=    0.0000 C=    0.0000
 XYZ=   -5.5792  -10.9292    4.0759 Q=    0.4100 A=    0.0000 R=    0.0000 C=    0.0000
 XYZ=   -4.3491   -9.9881    3.5584 Q=    0.4100 A=    0.0000 R=    0.0000 C=    0.0000
 XYZ=    1.8960   -4.3470   10.7504 Q=   -0.8200 A=    0.0000 R=    0.0000 C=    0.0000
 XYZ=    2.8283   -4.3272   11.1118 Q=    0.4100 A=    0.0000 R=    0.0000 C=    0.0000
 XYZ=    1.2657   -4.6382   11.4701 Q=    0.4100 A=    0.0000 R=    0.0000 C=    0.0000
 XYZ=    9.8088   -7.6894    3.4365 Q=   -0.8200 A=    0.0000 R=    0.0000 C=    0.0000
 XYZ=    9.2026   -7.1803    2.8254 Q=    0.4100 A=    0.0000 R=    0.0000 C=    0.0000
 XYZ=    9.3087   -8.4561    3.8392 Q=    0.4100 A=    0.0000 R=    0.0000 C=    0.0000
 XYZ=  -12.3422    2.3093   -1.7468 Q=   -0.8200 A=    0.0000 R=    0.0000 C=    0.0000
 XYZ=  -12.5985    2.8356   -2.5576 Q=    0.4100 A=    0.0000 R=    0.0000 C=    0.0000
 XYZ=  -12.9530    2.5437   -0.9905 Q=    0.4100 A=    0.0000 R=    0.0000 C=    0.0000
 XYZ=   -3.8470  -10.4858   -1.1273 Q=   -0.8200 A=    0.0000 R=    0.0000 C=    0.0000
 XYZ=   -3.3558  -10.7422   -1.9597 Q=    0.4100 A=    0.0000 R=    0.0000 C=    0.0000
 XYZ=   -4.7329  -10.0913   -1.3712 Q=    0.4100 A=    0.0000 R=    0.0000 C=    0.0000
 XYZ=   -1.5180  -10.5889   -4.6026 Q=   -0.8200 A=    0.0000 R=    0.0000 C=    0.0000
 XYZ=   -0.7749  -10.2784   -4.0098 Q=    0.4100 A=    0.0000 R=    0.0000 C=    0.0000
 XYZ=   -1.8276   -9.8293   -5.1746 Q=    0.4100 A=    0.0000 R=    0.0000 C=    0.0000
 XYZ=   -1.8360    4.8757  -11.8787 Q=   -0.8200 A=    0.0000 R=    0.0000 C=    0.0000
 XYZ=   -2.4204    4.2299  -11.3873 Q=    0.4100 A=    0.0000 R=    0.0000 C=    0.0000
 XYZ=   -1.1900    4.3712  -12.4517 Q=    0.4100 A=    0.0000 R=    0.0000 C=    0.0000
 XYZ=   -3.4002   11.7324    2.1831 Q=   -0.8200 A=    0.0000 R=    0.0000 C=    0.0000
 XYZ=   -4.0718   11.9036    2.9040 Q=    0.4100 A=    0.0000 R=    0.0000 C=    0.0000
 XYZ=   -3.8593   11.3388    1.3866 Q=    0.4100 A=    0.0000 R=    0.0000 C=    0.0000
[...]
    40  H   -0.002575  -0.001734   0.000000   0.000000   0.000000   0.000000
    41  H   -0.000007  -0.000067   0.000000   0.000000   0.000000   0.000000
    42  O    0.000000   0.000000  -0.002406   0.000082   0.000002   0.000000
    43  H    0.000000   0.000000  -0.000700   0.000169   0.000024   0.000000
    44  H    0.000000   0.000000   0.000054  -0.000001   0.000000   0.000000
    45  O    0.000000   0.000000  -0.000040   0.000013   0.000000   0.000000
    46  H    0.000000   0.000000   0.000001   0.000000   0.000000   0.000000
    47  H    0.000000   0.000000   0.000005  -0.000002   0.000000   0.000000
    48  O    0.000001  -0.000005   0.000000   0.000000   0.000000   0.000043
    49  H    0.000000   0.000000   0.000000   0.000000   0.000000  -0.000001
    50  H    0.000000   0.000000   0.000000   0.000000   0.000000   0.000102
              31         32         33         34         35         36
     1  C   -0.000008  -0.000004  -0.000629  -0.000037   0.000183  -0.001173
     2  H    0.000000   0.000000  -0.000014   0.000000  -0.000001   0.000014
     3  H    0.000000   0.000000  -0.000009   0.000000  -0.000001   0.000034
     4  C    0.000089  -0.000003  -0.000111   0.000040  -0.000023   0.000343
     5  H    0.000000   0.000000   0.000000   0.000000   0.000000   0.000010
     6  C    0.000440   0.000065  -0.000177   0.000016  -0.000049   0.000458
     7  H   -0.000002   0.000000   0.000000   0.000000   0.000000   0.000001
     8  O    0.000442   0.000031   0.000116  -0.000001  -0.000007   0.000009
     9  O    0.011417   0.002104   0.000000   0.000000   0.000000   0.000000
    10  H    0.003394   0.000027   0.000000   0.000000   0.000000   0.000000
    11  H   -0.001954  -0.000083   0.000000   0.000000   0.000000   0.000000
    12  O   -0.000001   0.000000  -0.125408   0.002303   0.004083  -0.006214
    13  H    0.000000   0.000000  -0.002391   0.002280   0.005127   0.004293
    14  H    0.000000   0.000000   0.005252   0.000019  -0.000447   0.000590
    15  O    0.000531  -0.000081   0.000001   0.000000   0.000000   0.000000
    16  H   -0.000053   0.000002   0.000000   0.000000   0.000000   0.000000
    17  H    0.001275  -0.000008   0.000000   0.000000   0.000000   0.000000
    18  O    0.000000   0.000000   0.000001   0.000000   0.000000   0.000035
    19  H    0.000000   0.000000   0.000000   0.000000   0.000000   0.000041
    20  H    0.000000   0.000000   0.000000   0.000000   0.000000  -0.000001
    21  O    0.000000   0.000000  -0.017363  -0.000757   0.000646  -0.000063
    22  H    0.000000   0.000000   0.000710  -0.000062  -0.000013  -0.000005
    23  H    0.000000   0.000000  -0.000802  -0.000124   0.000083   0.000079
    24  O    0.000000   0.000000   0.000000   0.000000   0.000000   0.000000
    25  H    0.000000   0.000000   0.000000   0.000000   0.000000   0.000000
    26  H    0.000000   0.000000   0.000000   0.000000   0.000000   0.000000
    27  O    0.000000   0.000000  -0.000782   0.000009   0.000073  -0.050519
    28  H    0.000000   0.000000   0.000006   0.000000  -0.000004   0.001062
    29  H    0.000000   0.000000   0.000006   0.000000  -0.000003   0.000265
    30  O    0.156181   0.205252   0.000000   0.000000   0.000000   0.000000
    31  H    0.211297  -0.005045   0.000000   0.000000   0.000000   0.000000
    32  H   -0.005045   0.198907   0.000000   0.000000   0.000000   0.000000
    33  O    0.000000   0.000000   9.062165   0.204505   0.152786  -0.080025
    34  H    0.000000   0.000000   0.204505   0.165889  -0.002086   0.001358
    35  H    0.000000   0.000000   0.152786  -0.002086   0.190233   0.027596
    36  O    0.000000   0.000000  -0.080025   0.001358   0.027596   8.869331
    37  H    0.000000   0.000000   0.002325  -0.000041  -0.001271   0.219720
    38  H    0.000000   0.000000   0.001279   0.000011   0.001774   0.203277
    39  O    0.000000   0.000000   0.000000   0.000000   0.000000   0.000000
    40  H    0.000000   0.000000   0.000000   0.000000   0.000000   0.000000
    41  H    0.000000   0.000000   0.000000   0.000000   0.000000   0.000000
    42  O    0.000000   0.000000   0.000000   0.000000   0.000000  -0.000160
    43  H    0.000000   0.000000   0.000000   0.000000   0.000000   0.000014
    44  H    0.000000   0.000000   0.000000   0.000000   0.000000   0.000000
    45  O    0.000000   0.000000   0.000000   0.000000   0.000000   0.000003
    46  H    0.000000   0.000000   0.000000   0.000000   0.000000   0.000000
    47  H    0.000000   0.000000   0.000000   0.000000   0.000000   0.000000
    48  O    0.000020  -0.000001  -0.000001   0.000000   0.000000   0.000000
    49  H    0.000000   0.000000   0.000000   0.000000   0.000000   0.000000
    50  H    0.000017   0.000000   0.000000   0.000000   0.000000   0.000000
              37         38         39         40         41         42
     1  C   -0.000270   0.000403  -0.000051   0.000010   0.000000   0.000243
     2  H    0.000000   0.000000   0.000000   0.000000   0.000000   0.000000
     3  H    0.000000  -0.000001   0.000000   0.000000   0.000000   0.000000
     4  C    0.000168  -0.000326  -0.002223  -0.000714   0.000120  -0.000495
     5  H    0.000000  -0.000001  -0.000003   0.000000   0.000000   0.000000
     6  C    0.000007   0.000025   0.001570   0.000744  -0.000243  -0.000093
     7  H    0.000000   0.000000   0.000032  -0.000007   0.000000   0.000000
     8  O    0.000000  -0.000002   0.000010   0.000003   0.000000   0.000000
     9  O    0.000000   0.000000   0.000007   0.000000   0.000000   0.000000
    10  H    0.000000   0.000000  -0.000001   0.000000   0.000000   0.000000
    11  H    0.000000   0.000000   0.000000   0.000000   0.000000   0.000000
    12  O    0.000131  -0.000184   0.000000   0.000000   0.000000   0.000000
    13  H   -0.000030  -0.000006   0.000000   0.000000   0.000000   0.000000
    14  H    0.000004  -0.000031   0.000000   0.000000   0.000000   0.000000
    15  O    0.000000   0.000000   0.000000   0.000000   0.000000   0.000000
    16  H    0.000000   0.000000   0.000000   0.000000   0.000000   0.000000
    17  H    0.000000   0.000000   0.000000   0.000000   0.000000   0.000000
    18  O    0.000000  -0.000050  -0.000003   0.000001   0.000000  -0.103673
    19  H    0.000000   0.000004   0.000000   0.000000   0.000000  -0.000072
    20  H    0.000000   0.000000   0.000000   0.000000   0.000000   0.000876
    21  O    0.000003  -0.000006   0.000000   0.000000   0.000000   0.000000
    22  H    0.000000   0.000000   0.000000   0.000000   0.000000   0.000000
    23  H    0.000000   0.000000   0.000000   0.000000   0.000000   0.000000
    24  O    0.000000   0.000000  -0.051641   0.049042   0.000969   0.000000
    25  H    0.000000   0.000000   0.000677  -0.002575  -0.000007   0.000000
    26  H    0.000000   0.000000  -0.000464  -0.001734  -0.000067   0.000000
    27  O    0.000596   0.014996   0.000000   0.000000   0.000000  -0.002406
    28  H    0.000007  -0.000132   0.000000   0.000000   0.000000   0.000082
    29  H    0.000006   0.000351   0.000000   0.000000   0.000000   0.000002
    30  O    0.000000   0.000000   0.000000   0.000000   0.000000   0.000000
    31  H    0.000000   0.000000   0.000000   0.000000   0.000000   0.000000
    32  H    0.000000   0.000000   0.000000   0.000000   0.000000   0.000000
    33  O    0.002325   0.001279   0.000000   0.000000   0.000000   0.000000
    34  H   -0.000041   0.000011   0.000000   0.000000   0.000000   0.000000
    35  H   -0.001271   0.001774   0.000000   0.000000   0.000000   0.000000
    36  O    0.219720   0.203277   0.000000   0.000000   0.000000  -0.000160
    37  H    0.166826  -0.007105   0.000000   0.000000   0.000000   0.000002
    38  H   -0.007105   0.196088   0.000000   0.000000   0.000000  -0.000004
    39  O    0.000000   0.000000   8.793889   0.180892   0.226898   0.000000
    40  H    0.000000   0.000000   0.180892   0.217365  -0.009637   0.000000
    41  H    0.000000   0.000000   0.226898  -0.009637   0.209464   0.000000
    42  O    0.000002  -0.000004   0.000000   0.000000   0.000000   9.051746
    43  H    0.000000   0.000000   0.000000   0.000000   0.000000   0.133728
    44  H    0.000000   0.000000   0.000000   0.000000   0.000000   0.208037
    45  O    0.000000   0.000000   0.000000   0.000000   0.000000   0.007361
    46  H    0.000000   0.000000   0.000000   0.000000   0.000000  -0.000725
    47  H    0.000000   0.000000   0.000000   0.000000   0.000000  -0.005470
    48  O    0.000000   0.000000   0.000001   0.000000   0.000000   0.000000
    49  H    0.000000   0.000000   0.000000   0.000000   0.000000   0.000000
    50  H    0.000000   0.000000   0.000000   0.000000   0.000000   0.000000
              43         44         45         46         47         48
     1  C   -0.000050  -0.000013  -0.000434  -0.000367   0.000015   0.000196
     2  H    0.000000   0.000000   0.000000   0.000000   0.000000   0.000000
     3  H    0.000000   0.000000   0.000000  -0.000001   0.000000   0.000000
     4  C    0.000131   0.000021   0.000461   0.000516  -0.000009  -0.000323
     5  H   -0.000002   0.000000  -0.000011  -0.000002   0.000000   0.000000
     6  C   -0.000013   0.000003   0.000248   0.000319   0.000022   0.000457
     7  H    0.000000   0.000000   0.000000   0.000000   0.000000  -0.000001
     8  O    0.000000   0.000000   0.000000   0.000000   0.000000  -0.001732
     9  O    0.000000   0.000000   0.000000   0.000000   0.000000  -0.002610
    10  H    0.000000   0.000000   0.000000   0.000000   0.000000   0.000033
    11  H    0.000000   0.000000   0.000000   0.000000   0.000000   0.000139
    12  O    0.000000   0.000000   0.000000   0.000000   0.000000  -0.000008
    13  H    0.000000   0.000000   0.000000   0.000000   0.000000   0.000000
    14  H    0.000000   0.000000   0.000000   0.000000   0.000000  -0.000006
    15  O    0.000000   0.000000   0.000000   0.000000   0.000000  -0.104339
    16  H    0.000000   0.000000   0.000000   0.000000   0.000000  -0.002247
    17  H    0.000000   0.000000   0.000000   0.000000   0.000000   0.002440
    18  O    0.035892   0.003655  -0.002428   0.000285   0.000193   0.000000
    19  H   -0.006104  -0.000060   0.000057  -0.000001  -0.000005   0.000000
    20  H   -0.002161  -0.000253   0.000011  -0.000014  -0.000014   0.000000
    21  O    0.000000   0.000000   0.000000   0.000000   0.000000   0.000000
    22  H    0.000000   0.000000   0.000000   0.000000   0.000000   0.000000
    23  H    0.000000   0.000000   0.000000   0.000000   0.000000   0.000000
    24  O    0.000000   0.000000   0.000000   0.000000   0.000000  -0.000046
    25  H    0.000000   0.000000   0.000000   0.000000   0.000000   0.000001
    26  H    0.000000   0.000000   0.000000   0.000000   0.000000  -0.000005
    27  O   -0.000700   0.000054  -0.000040   0.000001   0.000005   0.000000
    28  H    0.000169  -0.000001   0.000013   0.000000  -0.000002   0.000000
    29  H    0.000024   0.000000   0.000000   0.000000   0.000000   0.000000
    30  O    0.000000   0.000000   0.000000   0.000000   0.000000   0.000043
    31  H    0.000000   0.000000   0.000000   0.000000   0.000000   0.000020
    32  H    0.000000   0.000000   0.000000   0.000000   0.000000  -0.000001
    33  O    0.000000   0.000000   0.000000   0.000000   0.000000  -0.000001
    34  H    0.000000   0.000000   0.000000   0.000000   0.000000   0.000000
    35  H    0.000000   0.000000   0.000000   0.000000   0.000000   0.000000
    36  O    0.000014   0.000000   0.000003   0.000000   0.000000   0.000000
    37  H    0.000000   0.000000   0.000000   0.000000   0.000000   0.000000
    38  H    0.000000   0.000000   0.000000   0.000000   0.000000   0.000000
    39  O    0.000000   0.000000   0.000000   0.000000   0.000000   0.000001
    40  H    0.000000   0.000000   0.000000   0.000000   0.000000   0.000000
    41  H    0.000000   0.000000   0.000000   0.000000   0.000000   0.000000
    42  O    0.133728   0.208037   0.007361  -0.000725  -0.005470   0.000000
    43  H    0.239953  -0.006260  -0.000358   0.000030   0.000091   0.000000
    44  H   -0.006260   0.186552  -0.002642   0.000084   0.000048   0.000000
    45  O   -0.000358  -0.002642   8.773534   0.218287   0.180635   0.000000
    46  H    0.000030   0.000084   0.218287   0.299559  -0.005403   0.000000
    47  H    0.000091   0.000048   0.180635  -0.005403   0.133851   0.000000
    48  O    0.000000   0.000000   0.000000   0.000000   0.000000   8.987673
    49  H    0.000000   0.000000   0.000000   0.000000   0.000000   0.216763
    50  H    0.000000   0.000000   0.000000   0.000000   0.000000   0.171531
              49         50
     1  C   -0.000003   0.000001
     2  H    0.000000   0.000000
     3  H    0.000000   0.000000
     4  C    0.000018  -0.000096
     5  H    0.000000   0.000000
     6  C   -0.000019  -0.000019
     7  H    0.000000  -0.000001
     8  O    0.000027  -0.000114
     9  O    0.000039  -0.000538
    10  H    0.000001   0.000036
    11  H    0.000000   0.000044
    12  O    0.000000   0.000001
    13  H    0.000000   0.000000
    14  H    0.000000   0.000000
    15  O    0.001999   0.013293
    16  H   -0.000071  -0.001434
    17  H    0.000026   0.003236
    18  O    0.000000   0.000000
    19  H    0.000000   0.000000
    20  H    0.000000   0.000000
    21  O    0.000000   0.000000
    22  H    0.000000   0.000000
    23  H    0.000000   0.000000
    24  O    0.000001   0.000000
    25  H    0.000000   0.000000
    26  H    0.000000   0.000000
    27  O    0.000000   0.000000
    28  H    0.000000   0.000000
    29  H    0.000000   0.000000
    30  O   -0.000001   0.000102
    31  H    0.000000   0.000017
    32  H    0.000000   0.000000
    33  O    0.000000   0.000000
    34  H    0.000000   0.000000
    35  H    0.000000   0.000000
    36  O    0.000000   0.000000
    37  H    0.000000   0.000000
    38  H    0.000000   0.000000
    39  O    0.000000   0.000000
    40  H    0.000000   0.000000
    41  H    0.000000   0.000000
    42  O    0.000000   0.000000
    43  H    0.000000   0.000000
    44  H    0.000000   0.000000
    45  O    0.000000   0.000000
    46  H    0.000000   0.000000
    47  H    0.000000   0.000000
    48  O    0.216763   0.171531
    49  H    0.172209  -0.003302
    50  H   -0.003302   0.196838
 Mulliken charges:
               1
     1  C   -0.400128
     2  H    0.282857
     3  H    0.218654
     4  C   -0.122066
     5  H    0.226880
     6  C    0.072262
     7  H    0.171476
     8  O   -0.430479
     9  O   -1.194100
    10  H    0.563407
    11  H    0.630895
    12  O   -1.102535
    13  H    0.596828
    14  H    0.476219
    15  O   -1.233034
    16  H    0.607080
    17  H    0.637965
    18  O   -1.159827
    19  H    0.598469
    20  H    0.629371
    21  O   -1.276603
    22  H    0.614797
    23  H    0.619775
    24  O   -1.169864
    25  H    0.499678
    26  H    0.682953
    27  O   -1.160653
    28  H    0.527772
    29  H    0.643254
    30  O   -1.227309
    31  H    0.621960
    32  H    0.598838
    33  O   -1.201437
    34  H    0.626679
    35  H    0.621320
    36  O   -1.190372
    37  H    0.618921
    38  H    0.589640
    39  O   -1.149591
    40  H    0.566611
    41  H    0.572504
    42  O   -1.288978
    43  H    0.605617
    44  H    0.610776
    45  O   -1.174697
    46  H    0.487433
    47  H    0.696043
    48  O   -1.267980
    49  H    0.612314
    50  H    0.620406
 Sum of Mulliken charges =   0.00000
 Mulliken charges with hydrogens summed into heavy atoms:
               1
     1  C    0.101383
     4  C    0.104814
     6  C    0.243738
     8  O   -0.430479
     9  O    0.000202
    12  O   -0.029488
    15  O    0.012011
    18  O    0.068014
    21  O   -0.042031
    24  O    0.012766
    27  O    0.010372
    30  O   -0.006511
    33  O    0.046561
    36  O    0.018189
    39  O   -0.010476
    42  O   -0.072584
    45  O    0.008780
    48  O   -0.035260
 Electronic spatial extent (au):  <R**2>=          15212.1661
 Charge=              0.0000 electrons
 Dipole moment (field-independent basis, Debye):
    X=              9.6516    Y=             -6.3405    Z=             -1.7997  Tot=             11.6874
 Quadrupole moment (field-independent basis, Debye-Ang):
   XX=           -172.1787   YY=           -136.0791   ZZ=           -122.1184
   XY=             56.0533   XZ=            -22.8453   YZ=             -5.2368
 Traceless Quadrupole moment (field-independent basis, Debye-Ang):
   XX=            -28.7200   YY=              7.3797   ZZ=             21.3403
   XY=             56.0533   XZ=            -22.8453   YZ=             -5.2368
 Octapole moment (field-independent basis, Debye-Ang**2):
  XXX=           -131.0324  YYY=            111.9975  ZZZ=            -99.8933  XYY=             93.5398
  XXY=           -202.8756  XXZ=           -172.9144  XZZ=             50.1725  YZZ=             33.5487
  YYZ=             92.6601  XYZ=            101.5968
 Hexadecapole moment (field-independent basis, Debye-Ang**3):
 XXXX=         -12610.0860 YYYY=          -6087.1394 ZZZZ=          -2165.4573 XXXY=            441.6662
 XXXZ=          -1156.3231 YYYX=           2051.9598 YYYZ=             36.8422 ZZZX=           -185.5399
 ZZZY=            -96.2770 XXYY=          -2269.9400 XXZZ=          -2460.7380 YYZZ=          -1410.2500
 XXYZ=           -281.0138 YYXZ=           -134.8759 ZZXY=            108.8126
 N-N= 9.570445438520D+02 E-N=-5.880713220567D+03  KE= 1.248880767203D+03
 Leave Link  601 at Fri Sep 14 19:24:25 2018, MaxMem=    33554432 cpu:         2.0
 (Enter /usr/local/pacerepov1/gaussian/G09D01LINDA/g09/l9999.exe)

 Test job not archived.
 1\1\GINC-RICH133-C36-32-R\SP\RLC-wPBE TD-FC\6-31+G(d)\C3H32O15\HOLIVEI
 RA7\14-Sep-2018\0\\#p td=(nstates=15)/6-31+g(d) lc-wpbe charge\\Acrole
 ina in Water\\0,1\C,0,0.485154,0.480443,-1.430142\H,0,1.461403,0.18777
 3,-1.055732\H,0,0.429244,0.878853,-2.437062\C,0,-0.605127,0.346563,-0.
 658432\H,0,-1.591686,0.632893,-1.012412\C,0,-0.508516,-0.199107,0.7127
 98\H,0,-1.458487,-0.272107,1.272438\O,0,0.544883,-0.561317,1.236519\O,
 0,1.096888,-2.856901,2.5857\H,0,0.634268,-2.251131,1.93834\H,0,0.42251
 8,-3.445191,3.031919\O,0,2.768048,2.601449,0.6257\H,0,2.818338,3.54954
 9,0.31162\H,0,2.013078,2.504869,1.27431\O,0,2.186798,-1.461741,4.21020
 9\H,0,2.871728,-0.816371,3.87193\H,0,1.746608,-1.916751,3.43611\O,0,-4
 .266952,3.679679,-1.436211\H,0,-4.424161,4.528049,-0.93065\H,0,-5.0531
 82,3.072509,-1.32109\O,0,5.104208,2.512739,0.52746\H,0,5.283829,2.7348
 49,-0.43088\H,0,4.116838,2.483199,0.6833\O,0,-4.088761,0.621419,3.5292
 3\H,0,-3.507562,0.946439,2.783159\H,0,-3.520942,0.190259,4.23047\O,0,-
 1.791812,5.528989,-0.30996\H,0,-2.332892,4.704329,-0.47489\H,0,-2.1736
 52,6.02809,0.46792\O,0,3.107238,-4.168591,2.209399\H,0,2.275258,-3.668
 891,2.450639\H,0,3.091258,-5.07051,2.64104\O,0,2.993728,4.73208,-0.050
 16\H,0,3.601548,5.28663,-0.61852\H,0,2.043828,4.905859,-0.31006\O,0,0.
 769838,5.34487,-0.59889\H,0,0.890468,5.91164,-1.41389\H,0,-0.206332,5.
 222519,-0.41953\O,0,-5.596302,-1.095371,2.15172\H,0,-4.913941,-0.47450
 1,2.53764\H,0,-5.572082,-1.965171,2.644639\O,0,-4.165231,5.0953,-3.304
 59\H,0,-4.149302,4.421999,-2.565351\H,0,-4.824232,4.8104,-4.00071\O,0,
 -3.838962,2.526759,-5.24073\H,0,-3.598232,1.602819,-4.94335\H,0,-3.173
 062,3.178099,-4.876831\O,0,0.773538,-0.307721,5.608709\H,0,1.335278,0.
 354029,6.105269\H,0,1.364728,-0.914171,5.07699\\Version=EM64L-G09RevD.
 01\State=1-A\HF=-1759.2261752\RMSD=7.991e-09\PG=C01 [X(C3H32O15)]\\@


 THIS CURIOUS WORLD WHICH WE INHABIT IS MORE WONDERFUL THAN IT IS CONVENIENT;
 MORE BEAUTIFUL THAN IT IS USEFUL;
 IT IS MORE TO BE ADMIRED THAN IT IS TO BE USED.

                                                                 -- THOREAU
 Job cpu time:       0 days  2 hours 35 minutes 44.1 seconds.
 File lengths (MBytes):  RWF=    792 Int=      0 D2E=      0 Chk=     96 Scr=      2
 Normal termination of Gaussian 09 at Fri Sep 14 19:24:30 2018.
