 Entering Gaussian System, Link 0=g09
 Input=Acroleina_water_15_43c.gjf
 Output=Acroleina_water_15_43c.log
 Initial command:
 /usr/local/pacerepov1/gaussian/G09D01LINDA/g09/l1.exe /nv/hp18/holiveira7/scratch/22411916/Gau-63951.inp -scrdir=/nv/hp18/holiveira7/scratch/22411916/
 Entering Link 1 = /usr/local/pacerepov1/gaussian/G09D01LINDA/g09/l1.exe PID=     63953.
  
 Copyright (c) 1988,1990,1992,1993,1995,1998,2003,2009,2013,
            Gaussian, Inc.  All Rights Reserved.
  
 This is part of the Gaussian(R) 09 program.  It is based on
 the Gaussian(R) 03 system (copyright 2003, Gaussian, Inc.),
 the Gaussian(R) 98 system (copyright 1998, Gaussian, Inc.),
 the Gaussian(R) 94 system (copyright 1995, Gaussian, Inc.),
 the Gaussian 92(TM) system (copyright 1992, Gaussian, Inc.),
 the Gaussian 90(TM) system (copyright 1990, Gaussian, Inc.),
 the Gaussian 88(TM) system (copyright 1988, Gaussian, Inc.),
 the Gaussian 86(TM) system (copyright 1986, Carnegie Mellon
 University), and the Gaussian 82(TM) system (copyright 1983,
 Carnegie Mellon University). Gaussian is a federally registered
 trademark of Gaussian, Inc.
  
 This software contains proprietary and confidential information,
 including trade secrets, belonging to Gaussian, Inc.
  
 This software is provided under written license and may be
 used, copied, transmitted, or stored only in accord with that
 written license.
  
 The following legend is applicable only to US Government
 contracts under FAR:
  
                    RESTRICTED RIGHTS LEGEND
  
 Use, reproduction and disclosure by the US Government is
 subject to restrictions as set forth in subparagraphs (a)
 and (c) of the Commercial Computer Software - Restricted
 Rights clause in FAR 52.227-19.
  
 Gaussian, Inc.
 340 Quinnipiac St., Bldg. 40, Wallingford CT 06492
  
  
 ---------------------------------------------------------------
 Warning -- This program may not be used in any manner that
 competes with the business of Gaussian, Inc. or will provide
 assistance to any competitor of Gaussian, Inc.  The licensee
 of this program is prohibited from giving any competitor of
 Gaussian, Inc. access to this program.  By using this program,
 the user acknowledges that Gaussian, Inc. is engaged in the
 business of creating and licensing software in the field of
 computational chemistry and represents and warrants to the
 licensee that it is not a competitor of Gaussian, Inc. and that
 it will not use this program in any manner prohibited above.
 ---------------------------------------------------------------
  

 Cite this work as:
 Gaussian 09, Revision D.01,
 M. J. Frisch, G. W. Trucks, H. B. Schlegel, G. E. Scuseria, 
 M. A. Robb, J. R. Cheeseman, G. Scalmani, V. Barone, B. Mennucci, 
 G. A. Petersson, H. Nakatsuji, M. Caricato, X. Li, H. P. Hratchian, 
 A. F. Izmaylov, J. Bloino, G. Zheng, J. L. Sonnenberg, M. Hada, 
 M. Ehara, K. Toyota, R. Fukuda, J. Hasegawa, M. Ishida, T. Nakajima, 
 Y. Honda, O. Kitao, H. Nakai, T. Vreven, J. A. Montgomery, Jr., 
 J. E. Peralta, F. Ogliaro, M. Bearpark, J. J. Heyd, E. Brothers, 
 K. N. Kudin, V. N. Staroverov, T. Keith, R. Kobayashi, J. Normand, 
 K. Raghavachari, A. Rendell, J. C. Burant, S. S. Iyengar, J. Tomasi, 
 M. Cossi, N. Rega, J. M. Millam, M. Klene, J. E. Knox, J. B. Cross, 
 V. Bakken, C. Adamo, J. Jaramillo, R. Gomperts, R. E. Stratmann, 
 O. Yazyev, A. J. Austin, R. Cammi, C. Pomelli, J. W. Ochterski, 
 R. L. Martin, K. Morokuma, V. G. Zakrzewski, G. A. Voth, 
 P. Salvador, J. J. Dannenberg, S. Dapprich, A. D. Daniels, 
 O. Farkas, J. B. Foresman, J. V. Ortiz, J. Cioslowski, 
 and D. J. Fox, Gaussian, Inc., Wallingford CT, 2013.
 
 ******************************************
 Gaussian 09:  EM64L-G09RevD.01 24-Apr-2013
                14-Sep-2018 
 ******************************************
 %chk=Acrolina_Din_43.chk
 %nprocshared=10
 Will use up to   10 processors via shared memory.
 -------------------------------------------
 #p td=(nstates=15)/6-31+g(d) lc-wpbe charge
 -------------------------------------------
 1/18=10,28=-2,38=1,125=101/1;
 2/12=2,17=6,18=5,40=1/2;
 3/5=1,6=6,7=11,11=9,16=1,25=1,30=1,74=-41/1,2,8,3;
 4//1;
 5/5=2,38=5/2;
 8/6=1,10=2,108=15/1;
 9/41=15,42=1,70=2/14;
 6/7=2,8=2,9=2,10=2/1;
 99/5=1,9=1/99;
 Leave Link    1 at Fri Sep 14 17:14:23 2018, MaxMem=           0 cpu:         4.7
 (Enter /usr/local/pacerepov1/gaussian/G09D01LINDA/g09/l101.exe)
 ------------------
 Acroleina in Water
 ------------------
 Symbolic Z-matrix:
 Charge =  0 Multiplicity = 1
 C                     0.48515   0.48044  -1.43014 
 H                     1.4614    0.18777  -1.05573 
 H                     0.42924   0.87885  -2.43706 
 C                    -0.60513   0.34656  -0.65843 
 H                    -1.59169   0.63289  -1.01241 
 C                    -0.50852  -0.19911   0.7128 
 H                    -1.45849  -0.27211   1.27244 
 O                     0.54488  -0.56132   1.23652 
 O                     2.11548   1.28319   1.8376 
 H                     2.09793   2.23741   1.53889 
 H                     1.18095   0.96923   2.00523 
 O                    -1.17037  -0.94116   3.36948 
 H                    -0.99953  -0.27208   2.64618 
 H                    -0.83031  -0.58512   4.2399 
 O                     1.57259   3.41473   0.79704 
 H                     2.14985   3.71671   0.03837 
 H                     0.61297   3.58772   0.57504 
 O                    -0.7872    4.37654   0.37843 
 H                    -0.27791   5.17667   0.06152 
 H                    -1.75894   4.4984    0.17613 
 O                     3.03303  -0.98592  -4.1421 
 H                     2.5646   -0.65642  -4.96192 
 H                     3.56555  -0.24086  -3.74042 
 O                    -0.14146  -3.27804   2.93945 
 H                    -0.57386  -2.38016   3.02247 
 H                    -0.62877  -3.93689   3.51255 
 O                     4.14403  -2.99228  -3.68554 
 H                     4.74774  -2.82056  -2.90701 
 H                     3.63162  -2.16065  -3.89975 
 O                    -3.3813   -1.38654   3.92405 
 H                    -3.28188  -2.05178   4.66406 
 H                    -2.48668  -1.20709   3.51479 
 O                     1.39507  -1.76873   4.4271 
 H                     2.28563  -1.54764   4.02951 
 H                     0.85308  -2.28525   3.76415 
 O                     4.22325   1.53782   1.22431 
 H                     4.23734   1.78052   0.25429 
 H                     3.27804   1.39688   1.5189 
 O                     1.2781   -5.02707   1.99415 
 H                     0.54219  -4.42559   2.30514 
 H                     1.59673  -5.58683   2.75913 
 O                    -3.17855   4.77124   0.16412 
 H                    -4.10649   4.51907  -0.11043 
 H                    -3.20458   5.21151   1.06162 
 O                     3.47242  -4.89905   0.97008 
 H                     2.5725   -4.77267   1.38749 
 H                     3.39714  -5.53476   0.20179 
 O                    -0.15337  -0.37827   5.51436 
 H                     0.30994   0.34882   6.021 
 H                     0.52036  -0.90415   4.99518 
 
 NAtoms=     50 NQM=       50 NQMF=       0 NMMI=      0 NMMIF=      0
                NMic=       0 NMicF=      0.
                    Isotopes and Nuclear Properties:
 (Nuclear quadrupole moments (NQMom) in fm**2, nuclear magnetic moments (NMagM)
  in nuclear magnetons)

  Atom         1           2           3           4           5           6           7           8           9          10
 IAtWgt=          12           1           1          12           1          12           1          16          16           1
 AtmWgt=  12.0000000   1.0078250   1.0078250  12.0000000   1.0078250  12.0000000   1.0078250  15.9949146  15.9949146   1.0078250
 NucSpn=           0           1           1           0           1           0           1           0           0           1
 AtZEff=   0.0000000   0.0000000   0.0000000   0.0000000   0.0000000   0.0000000   0.0000000   0.0000000   0.0000000   0.0000000
 NQMom=    0.0000000   0.0000000   0.0000000   0.0000000   0.0000000   0.0000000   0.0000000   0.0000000   0.0000000   0.0000000
 NMagM=    0.0000000   2.7928460   2.7928460   0.0000000   2.7928460   0.0000000   2.7928460   0.0000000   0.0000000   2.7928460
 AtZNuc=   6.0000000   1.0000000   1.0000000   6.0000000   1.0000000   6.0000000   1.0000000   8.0000000   8.0000000   1.0000000

  Atom        11          12          13          14          15          16          17          18          19          20
 IAtWgt=           1          16           1           1          16           1           1          16           1           1
 AtmWgt=   1.0078250  15.9949146   1.0078250   1.0078250  15.9949146   1.0078250   1.0078250  15.9949146   1.0078250   1.0078250
 NucSpn=           1           0           1           1           0           1           1           0           1           1
 AtZEff=   0.0000000   0.0000000   0.0000000   0.0000000   0.0000000   0.0000000   0.0000000   0.0000000   0.0000000   0.0000000
 NQMom=    0.0000000   0.0000000   0.0000000   0.0000000   0.0000000   0.0000000   0.0000000   0.0000000   0.0000000   0.0000000
 NMagM=    2.7928460   0.0000000   2.7928460   2.7928460   0.0000000   2.7928460   2.7928460   0.0000000   2.7928460   2.7928460
 AtZNuc=   1.0000000   8.0000000   1.0000000   1.0000000   8.0000000   1.0000000   1.0000000   8.0000000   1.0000000   1.0000000

  Atom        21          22          23          24          25          26          27          28          29          30
 IAtWgt=          16           1           1          16           1           1          16           1           1          16
 AtmWgt=  15.9949146   1.0078250   1.0078250  15.9949146   1.0078250   1.0078250  15.9949146   1.0078250   1.0078250  15.9949146
 NucSpn=           0           1           1           0           1           1           0           1           1           0
 AtZEff=   0.0000000   0.0000000   0.0000000   0.0000000   0.0000000   0.0000000   0.0000000   0.0000000   0.0000000   0.0000000
 NQMom=    0.0000000   0.0000000   0.0000000   0.0000000   0.0000000   0.0000000   0.0000000   0.0000000   0.0000000   0.0000000
 NMagM=    0.0000000   2.7928460   2.7928460   0.0000000   2.7928460   2.7928460   0.0000000   2.7928460   2.7928460   0.0000000
 AtZNuc=   8.0000000   1.0000000   1.0000000   8.0000000   1.0000000   1.0000000   8.0000000   1.0000000   1.0000000   8.0000000

  Atom        31          32          33          34          35          36          37          38          39          40
 IAtWgt=           1           1          16           1           1          16           1           1          16           1
 AtmWgt=   1.0078250   1.0078250  15.9949146   1.0078250   1.0078250  15.9949146   1.0078250   1.0078250  15.9949146   1.0078250
 NucSpn=           1           1           0           1           1           0           1           1           0           1
 AtZEff=   0.0000000   0.0000000   0.0000000   0.0000000   0.0000000   0.0000000   0.0000000   0.0000000   0.0000000   0.0000000
 NQMom=    0.0000000   0.0000000   0.0000000   0.0000000   0.0000000   0.0000000   0.0000000   0.0000000   0.0000000   0.0000000
 NMagM=    2.7928460   2.7928460   0.0000000   2.7928460   2.7928460   0.0000000   2.7928460   2.7928460   0.0000000   2.7928460
 AtZNuc=   1.0000000   1.0000000   8.0000000   1.0000000   1.0000000   8.0000000   1.0000000   1.0000000   8.0000000   1.0000000

  Atom        41          42          43          44          45          46          47          48          49          50
 IAtWgt=           1          16           1           1          16           1           1          16           1           1
 AtmWgt=   1.0078250  15.9949146   1.0078250   1.0078250  15.9949146   1.0078250   1.0078250  15.9949146   1.0078250   1.0078250
 NucSpn=           1           0           1           1           0           1           1           0           1           1
 AtZEff=   0.0000000   0.0000000   0.0000000   0.0000000   0.0000000   0.0000000   0.0000000   0.0000000   0.0000000   0.0000000
 NQMom=    0.0000000   0.0000000   0.0000000   0.0000000   0.0000000   0.0000000   0.0000000   0.0000000   0.0000000   0.0000000
 NMagM=    2.7928460   0.0000000   2.7928460   2.7928460   0.0000000   2.7928460   2.7928460   0.0000000   2.7928460   2.7928460
 AtZNuc=   1.0000000   8.0000000   1.0000000   1.0000000   8.0000000   1.0000000   1.0000000   8.0000000   1.0000000   1.0000000
 Background charge distribution read from input stream:
 Point Charges:
 XYZ=    3.8081   -1.3490    3.7853 Q=   -0.8200 A=    0.0000 R=    0.0000 C=    0.0000
 XYZ=    4.0984   -0.4174    4.0043 Q=    0.4100 A=    0.0000 R=    0.0000 C=    0.0000
 XYZ=    4.2382   -1.6399    2.9307 Q=    0.4100 A=    0.0000 R=    0.0000 C=    0.0000
 XYZ=    5.1467   -3.2192    0.2246 Q=   -0.8200 A=    0.0000 R=    0.0000 C=    0.0000
 XYZ=    4.4207   -3.8398    0.5210 Q=    0.4100 A=    0.0000 R=    0.0000 C=    0.0000
 XYZ=    6.0063   -3.7245    0.1478 Q=    0.4100 A=    0.0000 R=    0.0000 C=    0.0000
 XYZ=    4.0358   -5.3441   -2.8914 Q=   -0.8200 A=    0.0000 R=    0.0000 C=    0.0000
 XYZ=    3.8958   -4.4181   -3.2421 Q=    0.4100 A=    0.0000 R=    0.0000 C=    0.0000
 XYZ=    4.1984   -5.9688   -3.6552 Q=    0.4100 A=    0.0000 R=    0.0000 C=    0.0000
 XYZ=    4.9361    0.2470   -2.6258 Q=   -0.8200 A=    0.0000 R=    0.0000 C=    0.0000
 XYZ=    5.3156    0.2641   -3.5508 Q=    0.4100 A=    0.0000 R=    0.0000 C=    0.0000
 XYZ=    5.2585   -0.5704   -2.1484 Q=    0.4100 A=    0.0000 R=    0.0000 C=    0.0000
 XYZ=    5.6971   -1.5420   -1.3999 Q=   -0.8200 A=    0.0000 R=    0.0000 C=    0.0000
 XYZ=    6.4579   -1.0084   -1.0304 Q=    0.4100 A=    0.0000 R=    0.0000 C=    0.0000
 XYZ=    5.4457   -2.2586   -0.7492 Q=    0.4100 A=    0.0000 R=    0.0000 C=    0.0000
 XYZ=    2.4722    4.9160    2.2100 Q=   -0.8200 A=    0.0000 R=    0.0000 C=    0.0000
 XYZ=    2.1002    4.1884    1.6336 Q=    0.4100 A=    0.0000 R=    0.0000 C=    0.0000
 XYZ=    2.8774    5.6245    1.6323 Q=    0.4100 A=    0.0000 R=    0.0000 C=    0.0000
 XYZ=    5.4043   -2.1499    2.2655 Q=   -0.8200 A=    0.0000 R=    0.0000 C=    0.0000
 XYZ=    5.3281   -2.5858    1.3687 Q=    0.4100 A=    0.0000 R=    0.0000 C=    0.0000
 XYZ=    5.5117   -2.8522    2.9693 Q=    0.4100 A=    0.0000 R=    0.0000 C=    0.0000
 XYZ=   -2.6009    6.4691   -1.3624 Q=   -0.8200 A=    0.0000 R=    0.0000 C=    0.0000
 XYZ=   -2.8583    5.6683   -0.8215 Q=    0.4100 A=    0.0000 R=    0.0000 C=    0.0000
 XYZ=   -2.5646    7.2739   -0.7699 Q=    0.4100 A=    0.0000 R=    0.0000 C=    0.0000
 XYZ=   -5.2914    3.8361   -0.4663 Q=   -0.8200 A=    0.0000 R=    0.0000 C=    0.0000
 XYZ=   -5.8343    4.5591   -0.0390 Q=    0.4100 A=    0.0000 R=    0.0000 C=    0.0000
 XYZ=   -5.7582    2.9587   -0.3548 Q=    0.4100 A=    0.0000 R=    0.0000 C=    0.0000
 XYZ=    6.0740    0.0958    1.8564 Q=   -0.8200 A=    0.0000 R=    0.0000 C=    0.0000
 XYZ=    5.2161    0.5986    1.7504 Q=    0.4100 A=    0.0000 R=    0.0000 C=    0.0000
 XYZ=    5.8766   -0.8750    1.9932 Q=    0.4100 A=    0.0000 R=    0.0000 C=    0.0000
 XYZ=    4.9493    2.0054   -1.0828 Q=   -0.8200 A=    0.0000 R=    0.0000 C=    0.0000
 XYZ=    4.8071    2.8972   -1.5125 Q=    0.4100 A=    0.0000 R=    0.0000 C=    0.0000
 XYZ=    4.9243    1.2908   -1.7820 Q=    0.4100 A=    0.0000 R=    0.0000 C=    0.0000
 XYZ=    1.2737   -6.8377    0.3758 Q=   -0.8200 A=    0.0000 R=    0.0000 C=    0.0000
 XYZ=    1.2822   -6.0592    1.0033 Q=    0.4100 A=    0.0000 R=    0.0000 C=    0.0000
 XYZ=    2.1555   -6.8981   -0.0922 Q=    0.4100 A=    0.0000 R=    0.0000 C=    0.0000
 XYZ=    0.7214    5.9382   -0.6547 Q=   -0.8200 A=    0.0000 R=    0.0000 C=    0.0000
 XYZ=    1.5504    5.3854   -0.7390 Q=    0.4100 A=    0.0000 R=    0.0000 C=    0.0000
 XYZ=    0.3480    6.1199   -1.5645 Q=    0.4100 A=    0.0000 R=    0.0000 C=    0.0000
 XYZ=    4.1657   -3.9149   -5.9319 Q=   -0.8200 A=    0.0000 R=    0.0000 C=    0.0000
 XYZ=    4.0932   -3.5452   -5.0055 Q=    0.4100 A=    0.0000 R=    0.0000 C=    0.0000
 XYZ=    5.1293   -4.0520   -6.1616 Q=    0.4100 A=    0.0000 R=    0.0000 C=    0.0000
 XYZ=   -3.5837    5.2988    2.5247 Q=   -0.8200 A=    0.0000 R=    0.0000 C=    0.0000
 XYZ=   -4.4671    4.8301    2.5263 Q=    0.4100 A=    0.0000 R=    0.0000 C=    0.0000
 XYZ=   -2.9188    4.7584    3.0403 Q=    0.4100 A=    0.0000 R=    0.0000 C=    0.0000
 XYZ=    1.8516   -0.7084   -6.2693 Q=   -0.8200 A=    0.0000 R=    0.0000 C=    0.0000
 XYZ=    1.8591    0.2388   -6.5897 Q=    0.4100 A=    0.0000 R=    0.0000 C=    0.0000
 XYZ=    1.0306   -1.1682   -6.6077 Q=    0.4100 A=    0.0000 R=    0.0000 C=    0.0000
 XYZ=   -5.0192    4.4891   -2.6926 Q=   -0.8200 A=    0.0000 R=    0.0000 C=    0.0000
 XYZ=   -5.0979    4.1381   -1.7595 Q=    0.4100 A=    0.0000 R=    0.0000 C=    0.0000
 XYZ=   -5.9118    4.4457   -3.1413 Q=    0.4100 A=    0.0000 R=    0.0000 C=    0.0000
 XYZ=    3.5092   -6.6258   -0.7507 Q=   -0.8200 A=    0.0000 R=    0.0000 C=    0.0000
 XYZ=    4.3458   -7.1333   -0.5440 Q=    0.4100 A=    0.0000 R=    0.0000 C=    0.0000
 XYZ=    3.6304   -6.1162   -1.6026 Q=    0.4100 A=    0.0000 R=    0.0000 C=    0.0000
 XYZ=   -0.4885    6.2338   -2.6444 Q=   -0.8200 A=    0.0000 R=    0.0000 C=    0.0000
 XYZ=   -1.4013    6.2160   -2.2363 Q=    0.4100 A=    0.0000 R=    0.0000 C=    0.0000
 XYZ=   -0.4126    5.5034   -3.3231 Q=    0.4100 A=    0.0000 R=    0.0000 C=    0.0000
 XYZ=    2.6927    4.7762   -0.6760 Q=   -0.8200 A=    0.0000 R=    0.0000 C=    0.0000
 XYZ=    2.9368    5.5152   -0.0482 Q=    0.4100 A=    0.0000 R=    0.0000 C=    0.0000
 XYZ=    3.3981    4.6900   -1.3795 Q=    0.4100 A=    0.0000 R=    0.0000 C=    0.0000
 XYZ=   -5.1488    2.3554   -4.5422 Q=   -0.8200 A=    0.0000 R=    0.0000 C=    0.0000
 XYZ=   -4.8642    1.5655   -3.9991 Q=    0.4100 A=    0.0000 R=    0.0000 C=    0.0000
 XYZ=   -4.3444    2.7850   -4.9526 Q=    0.4100 A=    0.0000 R=    0.0000 C=    0.0000
 XYZ=   -1.5639   -1.6716    6.8990 Q=   -0.8200 A=    0.0000 R=    0.0000 C=    0.0000
 XYZ=   -1.0387   -1.0428    6.3255 Q=    0.4100 A=    0.0000 R=    0.0000 C=    0.0000
 XYZ=   -2.3166   -2.0588    6.3664 Q=    0.4100 A=    0.0000 R=    0.0000 C=    0.0000
 XYZ=   -5.4342   -2.1056    3.0618 Q=   -0.8200 A=    0.0000 R=    0.0000 C=    0.0000
 XYZ=   -4.4936   -1.9885    3.3805 Q=    0.4100 A=    0.0000 R=    0.0000 C=    0.0000
 XYZ=   -5.7810   -2.9930    3.3657 Q=    0.4100 A=    0.0000 R=    0.0000 C=    0.0000
 XYZ=    4.1665   -2.9948    5.3149 Q=   -0.8200 A=    0.0000 R=    0.0000 C=    0.0000
 XYZ=    4.1528   -2.2315    4.6690 Q=    0.4100 A=    0.0000 R=    0.0000 C=    0.0000
 XYZ=    3.3854   -2.9209    5.9349 Q=    0.4100 A=    0.0000 R=    0.0000 C=    0.0000
 XYZ=    4.4237   -6.0712    2.8256 Q=   -0.8200 A=    0.0000 R=    0.0000 C=    0.0000
 XYZ=    4.0605   -5.5386    2.0610 Q=    0.4100 A=    0.0000 R=    0.0000 C=    0.0000
 XYZ=    3.6833   -6.5919    3.2506 Q=    0.4100 A=    0.0000 R=    0.0000 C=    0.0000
 XYZ=    0.8433    5.9208    3.8837 Q=   -0.8200 A=    0.0000 R=    0.0000 C=    0.0000
 XYZ=    0.4984    6.7429    3.4307 Q=    0.4100 A=    0.0000 R=    0.0000 C=    0.0000
 XYZ=    1.3017    5.3380    3.2127 Q=    0.4100 A=    0.0000 R=    0.0000 C=    0.0000
 XYZ=    6.1588   -5.5159   -1.7850 Q=   -0.8200 A=    0.0000 R=    0.0000 C=    0.0000
 XYZ=    5.2533   -5.3549   -2.1776 Q=    0.4100 A=    0.0000 R=    0.0000 C=    0.0000
 XYZ=    6.7859   -5.8142   -2.5046 Q=    0.4100 A=    0.0000 R=    0.0000 C=    0.0000
 XYZ=    2.1290   -2.5880    6.5059 Q=   -0.8200 A=    0.0000 R=    0.0000 C=    0.0000
 XYZ=    1.8342   -2.1693    5.6470 Q=    0.4100 A=    0.0000 R=    0.0000 C=    0.0000
 XYZ=    2.1746   -1.8886    7.2192 Q=    0.4100 A=    0.0000 R=    0.0000 C=    0.0000
 XYZ=    7.3914   -1.7498   -3.2157 Q=   -0.8200 A=    0.0000 R=    0.0000 C=    0.0000
 XYZ=    8.2639   -1.4475   -2.8319 Q=    0.4100 A=    0.0000 R=    0.0000 C=    0.0000
 XYZ=    6.7025   -1.7834   -2.4916 Q=    0.4100 A=    0.0000 R=    0.0000 C=    0.0000
 XYZ=    3.7969   -1.8847   -6.8929 Q=   -0.8200 A=    0.0000 R=    0.0000 C=    0.0000
 XYZ=    3.7283   -2.7865   -6.4664 Q=    0.4100 A=    0.0000 R=    0.0000 C=    0.0000
 XYZ=    2.9336   -1.3938   -6.7753 Q=    0.4100 A=    0.0000 R=    0.0000 C=    0.0000
 XYZ=   -6.8281    1.8948   -0.0919 Q=   -0.8200 A=    0.0000 R=    0.0000 C=    0.0000
 XYZ=   -7.2522    0.9908   -0.1470 Q=    0.4100 A=    0.0000 R=    0.0000 C=    0.0000
 XYZ=   -7.3109    2.5269   -0.6980 Q=    0.4100 A=    0.0000 R=    0.0000 C=    0.0000
 XYZ=    4.0934    4.5387    3.7671 Q=   -0.8200 A=    0.0000 R=    0.0000 C=    0.0000
 XYZ=    3.8549    4.6821    4.7276 Q=    0.4100 A=    0.0000 R=    0.0000 C=    0.0000
 XYZ=    3.2586    4.4050    3.2329 Q=    0.4100 A=    0.0000 R=    0.0000 C=    0.0000
 XYZ=   -5.5673   -0.4181    4.8599 Q=   -0.8200 A=    0.0000 R=    0.0000 C=    0.0000
 XYZ=   -4.5739   -0.5205    4.8072 Q=    0.4100 A=    0.0000 R=    0.0000 C=    0.0000
 XYZ=   -5.9985   -0.9860    4.1587 Q=    0.4100 A=    0.0000 R=    0.0000 C=    0.0000
 XYZ=    4.4425    0.7476    4.9513 Q=   -0.8200 A=    0.0000 R=    0.0000 C=    0.0000
 XYZ=    4.4736   -0.0182    5.5937 Q=    0.4100 A=    0.0000 R=    0.0000 C=    0.0000
 XYZ=    3.7179    1.3811    5.2226 Q=    0.4100 A=    0.0000 R=    0.0000 C=    0.0000
 XYZ=    1.1852    1.1266    6.7955 Q=   -0.8200 A=    0.0000 R=    0.0000 C=    0.0000
 XYZ=    1.5336    0.5062    7.4981 Q=    0.4100 A=    0.0000 R=    0.0000 C=    0.0000
 XYZ=    1.9068    1.7647    6.5268 Q=    0.4100 A=    0.0000 R=    0.0000 C=    0.0000
 XYZ=    0.0601    5.1174   -4.7669 Q=   -0.8200 A=    0.0000 R=    0.0000 C=    0.0000
 XYZ=   -0.1775    4.6776   -5.6330 Q=    0.4100 A=    0.0000 R=    0.0000 C=    0.0000
 XYZ=    1.0545    5.1954   -4.6946 Q=    0.4100 A=    0.0000 R=    0.0000 C=    0.0000
 XYZ=    5.6268    3.1132    2.5013 Q=   -0.8200 A=    0.0000 R=    0.0000 C=    0.0000
 XYZ=    4.9987    3.6833    3.0309 Q=    0.4100 A=    0.0000 R=    0.0000 C=    0.0000
 XYZ=    5.1094    2.5812    1.8310 Q=    0.4100 A=    0.0000 R=    0.0000 C=    0.0000
 XYZ=    6.9544    1.3934   -0.0042 Q=   -0.8200 A=    0.0000 R=    0.0000 C=    0.0000
 XYZ=    6.1177    1.6103   -0.5072 Q=    0.4100 A=    0.0000 R=    0.0000 C=    0.0000
 XYZ=    6.7175    0.9626    0.8666 Q=    0.4100 A=    0.0000 R=    0.0000 C=    0.0000
 XYZ=   -5.6550    4.3141    2.4488 Q=   -0.8200 A=    0.0000 R=    0.0000 C=    0.0000
 XYZ=   -6.1762    4.8133    1.7566 Q=    0.4100 A=    0.0000 R=    0.0000 C=    0.0000
 XYZ=   -5.9578    4.5937    3.3600 Q=    0.4100 A=    0.0000 R=    0.0000 C=    0.0000
 XYZ=   -3.4282    3.4787   -5.5774 Q=   -0.8200 A=    0.0000 R=    0.0000 C=    0.0000
 XYZ=   -3.0392    4.3096   -5.1794 Q=    0.4100 A=    0.0000 R=    0.0000 C=    0.0000
 XYZ=   -3.4985    3.5855   -6.5692 Q=    0.4100 A=    0.0000 R=    0.0000 C=    0.0000
 XYZ=   -1.1437   -5.1737    4.0754 Q=   -0.8200 A=    0.0000 R=    0.0000 C=    0.0000
 XYZ=   -1.3293   -5.9947    3.5354 Q=    0.4100 A=    0.0000 R=    0.0000 C=    0.0000
 XYZ=   -0.3107   -5.3091    4.6119 Q=    0.4100 A=    0.0000 R=    0.0000 C=    0.0000
 XYZ=    0.9864    3.6553   -6.8091 Q=   -0.8200 A=    0.0000 R=    0.0000 C=    0.0000
 XYZ=    1.4522    4.0929   -6.0399 Q=    0.4100 A=    0.0000 R=    0.0000 C=    0.0000
 XYZ=    1.3388    2.7269   -6.9275 Q=    0.4100 A=    0.0000 R=    0.0000 C=    0.0000
 XYZ=   -3.7422    6.3787   -3.2629 Q=   -0.8200 A=    0.0000 R=    0.0000 C=    0.0000
 XYZ=   -3.1645    6.5462   -2.4640 Q=    0.4100 A=    0.0000 R=    0.0000 C=    0.0000
 XYZ=   -4.2741    5.5440   -3.1205 Q=    0.4100 A=    0.0000 R=    0.0000 C=    0.0000
 XYZ=    2.1094    1.5697   -7.1337 Q=   -0.8200 A=    0.0000 R=    0.0000 C=    0.0000
 XYZ=    3.0539    1.6102   -6.8079 Q=    0.4100 A=    0.0000 R=    0.0000 C=    0.0000
 XYZ=    2.0908    1.7225   -8.1218 Q=    0.4100 A=    0.0000 R=    0.0000 C=    0.0000
 XYZ=   -2.3887    5.4663   -4.8836 Q=   -0.8200 A=    0.0000 R=    0.0000 C=    0.0000
 XYZ=   -1.4773    5.5347   -4.4780 Q=    0.4100 A=    0.0000 R=    0.0000 C=    0.0000
 XYZ=   -3.0589    5.8832   -4.2695 Q=    0.4100 A=    0.0000 R=    0.0000 C=    0.0000
 XYZ=   -7.2006    2.5749    1.9740 Q=   -0.8200 A=    0.0000 R=    0.0000 C=    0.0000
 XYZ=   -6.4773    3.2226    2.2134 Q=    0.4100 A=    0.0000 R=    0.0000 C=    0.0000
 XYZ=   -7.0373    2.2181    1.0542 Q=    0.4100 A=    0.0000 R=    0.0000 C=    0.0000
 XYZ=    1.1762    7.8218    0.6663 Q=   -0.8200 A=    0.0000 R=    0.0000 C=    0.0000
 XYZ=    0.6471    7.8542    1.5143 Q=    0.4100 A=    0.0000 R=    0.0000 C=    0.0000
 XYZ=    0.8600    7.0567    0.1053 Q=    0.4100 A=    0.0000 R=    0.0000 C=    0.0000
 XYZ=   -2.4324    7.4368    2.3056 Q=   -0.8200 A=    0.0000 R=    0.0000 C=    0.0000
 XYZ=   -2.8235    8.1958    2.8263 Q=    0.4100 A=    0.0000 R=    0.0000 C=    0.0000
 XYZ=   -2.8907    6.5857    2.5617 Q=    0.4100 A=    0.0000 R=    0.0000 C=    0.0000
 XYZ=    6.3091   -0.0468   -4.6879 Q=   -0.8200 A=    0.0000 R=    0.0000 C=    0.0000
 XYZ=    6.9369    0.7314   -4.7074 Q=    0.4100 A=    0.0000 R=    0.0000 C=    0.0000
 XYZ=    6.6945   -0.7717   -4.1170 Q=    0.4100 A=    0.0000 R=    0.0000 C=    0.0000
 XYZ=    5.5662   -4.1216    3.8521 Q=   -0.8200 A=    0.0000 R=    0.0000 C=    0.0000
 XYZ=    4.9160   -3.7450    4.5120 Q=    0.4100 A=    0.0000 R=    0.0000 C=    0.0000
 XYZ=    5.1521   -4.9027    3.3847 Q=    0.4100 A=    0.0000 R=    0.0000 C=    0.0000
 XYZ=    2.1592   -6.5112    3.7288 Q=   -0.8200 A=    0.0000 R=    0.0000 C=    0.0000
 XYZ=    1.6277   -6.1052    4.4722 Q=    0.4100 A=    0.0000 R=    0.0000 C=    0.0000
 XYZ=    2.2065   -7.5021    3.8554 Q=    0.4100 A=    0.0000 R=    0.0000 C=    0.0000
 XYZ=    7.1010   -4.4025   -0.0486 Q=   -0.8200 A=    0.0000 R=    0.0000 C=    0.0000
 XYZ=    8.0946   -4.5147   -0.0629 Q=    0.4100 A=    0.0000 R=    0.0000 C=    0.0000
 XYZ=    6.7027   -4.8582   -0.8446 Q=    0.4100 A=    0.0000 R=    0.0000 C=    0.0000
 XYZ=    3.1430    2.4093    6.3254 Q=   -0.8200 A=    0.0000 R=    0.0000 C=    0.0000
 XYZ=    3.6776    2.2589    7.1570 Q=    0.4100 A=    0.0000 R=    0.0000 C=    0.0000
 XYZ=    3.2113    3.3694    6.0544 Q=    0.4100 A=    0.0000 R=    0.0000 C=    0.0000
 XYZ=    5.7356   -0.6495   -6.8541 Q=   -0.8200 A=    0.0000 R=    0.0000 C=    0.0000
 XYZ=    5.9908   -0.2666   -5.9662 Q=    0.4100 A=    0.0000 R=    0.0000 C=    0.0000
 XYZ=    4.8331   -1.0750   -6.7865 Q=    0.4100 A=    0.0000 R=    0.0000 C=    0.0000
 XYZ=    2.3743    4.8912   -5.2623 Q=   -0.8200 A=    0.0000 R=    0.0000 C=    0.0000
 XYZ=    3.2454    4.8273   -4.7753 Q=    0.4100 A=    0.0000 R=    0.0000 C=    0.0000
 XYZ=    2.5297    5.2695   -6.1748 Q=    0.4100 A=    0.0000 R=    0.0000 C=    0.0000
 XYZ=   -3.4986   -2.6641    5.8921 Q=   -0.8200 A=    0.0000 R=    0.0000 C=    0.0000
 XYZ=   -3.8352   -2.6013    6.8316 Q=    0.4100 A=    0.0000 R=    0.0000 C=    0.0000
 XYZ=   -3.1901   -3.5978    5.7102 Q=    0.4100 A=    0.0000 R=    0.0000 C=    0.0000
 XYZ=    4.5742    4.3280   -2.2058 Q=   -0.8200 A=    0.0000 R=    0.0000 C=    0.0000
 XYZ=    5.5156    4.6477   -2.0985 Q=    0.4100 A=    0.0000 R=    0.0000 C=    0.0000
 XYZ=    4.3005    4.4130   -3.1639 Q=    0.4100 A=    0.0000 R=    0.0000 C=    0.0000
 XYZ=    0.0273   -3.7198    6.7163 Q=   -0.8200 A=    0.0000 R=    0.0000 C=    0.0000
 XYZ=    0.8968   -3.2829    6.4859 Q=    0.4100 A=    0.0000 R=    0.0000 C=    0.0000
 XYZ=   -0.6984   -3.0320    6.7283 Q=    0.4100 A=    0.0000 R=    0.0000 C=    0.0000
 XYZ=    7.7653   -0.6174   -0.6346 Q=   -0.8200 A=    0.0000 R=    0.0000 C=    0.0000
 XYZ=    7.3772    0.3003   -0.5494 Q=    0.4100 A=    0.0000 R=    0.0000 C=    0.0000
 XYZ=    8.1877   -0.8824    0.2323 Q=    0.4100 A=    0.0000 R=    0.0000 C=    0.0000
 XYZ=    3.4442   -5.5279   -7.5001 Q=   -0.8200 A=    0.0000 R=    0.0000 C=    0.0000
 XYZ=    4.1826   -5.3738   -8.1567 Q=    0.4100 A=    0.0000 R=    0.0000 C=    0.0000
 XYZ=    3.5784   -4.9388   -6.7032 Q=    0.4100 A=    0.0000 R=    0.0000 C=    0.0000
 XYZ=   -6.9183    3.8418   -4.0193 Q=   -0.8200 A=    0.0000 R=    0.0000 C=    0.0000
 XYZ=   -7.3733    4.0826   -4.8767 Q=    0.4100 A=    0.0000 R=    0.0000 C=    0.0000
 XYZ=   -6.0262    3.4360   -4.2180 Q=    0.4100 A=    0.0000 R=    0.0000 C=    0.0000
 XYZ=   -0.0051    2.8338    8.3322 Q=   -0.8200 A=    0.0000 R=    0.0000 C=    0.0000
 XYZ=    0.4023    2.1566    7.7195 Q=    0.4100 A=    0.0000 R=    0.0000 C=    0.0000
 XYZ=   -0.7265    2.4021    8.8738 Q=    0.4100 A=    0.0000 R=    0.0000 C=    0.0000
 XYZ=   -7.1865   -2.2070    1.6178 Q=   -0.8200 A=    0.0000 R=    0.0000 C=    0.0000
 XYZ=   -6.3815   -2.0754    2.1963 Q=    0.4100 A=    0.0000 R=    0.0000 C=    0.0000
 XYZ=   -7.3586   -3.1854    1.5035 Q=    0.4100 A=    0.0000 R=    0.0000 C=    0.0000
 XYZ=    6.4252    1.8064    4.3161 Q=   -0.8200 A=    0.0000 R=    0.0000 C=    0.0000
 XYZ=    6.2227    2.3076    3.4748 Q=    0.4100 A=    0.0000 R=    0.0000 C=    0.0000
 XYZ=    5.6347    1.2495    4.5708 Q=    0.4100 A=    0.0000 R=    0.0000 C=    0.0000
 XYZ=   -0.4637    8.5453   -2.7854 Q=   -0.8200 A=    0.0000 R=    0.0000 C=    0.0000
 XYZ=   -1.1882    8.8184   -3.4183 Q=    0.4100 A=    0.0000 R=    0.0000 C=    0.0000
 XYZ=   -0.3450    7.5530   -2.8229 Q=    0.4100 A=    0.0000 R=    0.0000 C=    0.0000
 XYZ=    5.5181   -7.4540   -0.6471 Q=   -0.8200 A=    0.0000 R=    0.0000 C=    0.0000
 XYZ=    6.2569   -7.8391   -0.0940 Q=    0.4100 A=    0.0000 R=    0.0000 C=    0.0000
 XYZ=    5.8407   -6.6243   -1.1028 Q=    0.4100 A=    0.0000 R=    0.0000 C=    0.0000
 XYZ=   -2.4640    8.3841   -0.0359 Q=   -0.8200 A=    0.0000 R=    0.0000 C=    0.0000
 XYZ=   -1.6847    8.9512   -0.3025 Q=    0.4100 A=    0.0000 R=    0.0000 C=    0.0000
 XYZ=   -2.3244    8.0414    0.8932 Q=    0.4100 A=    0.0000 R=    0.0000 C=    0.0000
 XYZ=   -6.6349    5.4924    0.4516 Q=   -0.8200 A=    0.0000 R=    0.0000 C=    0.0000
 XYZ=   -6.5303    6.4859    0.4056 Q=    0.4100 A=    0.0000 R=    0.0000 C=    0.0000
 XYZ=   -7.4010    5.2108   -0.1263 Q=    0.4100 A=    0.0000 R=    0.0000 C=    0.0000
 XYZ=   -0.0548    7.8489    2.5745 Q=   -0.8200 A=    0.0000 R=    0.0000 C=    0.0000
 XYZ=    0.0728    8.5681    3.2575 Q=    0.4100 A=    0.0000 R=    0.0000 C=    0.0000
 XYZ=   -1.0325    7.6935    2.4328 Q=    0.4100 A=    0.0000 R=    0.0000 C=    0.0000
 XYZ=   -2.9693   -5.1121    5.3869 Q=   -0.8200 A=    0.0000 R=    0.0000 C=    0.0000
 XYZ=   -2.1863   -5.1502    4.7661 Q=    0.4100 A=    0.0000 R=    0.0000 C=    0.0000
 XYZ=   -2.8908   -5.8404    6.0676 Q=    0.4100 A=    0.0000 R=    0.0000 C=    0.0000
 XYZ=    0.9842    6.1161    6.3931 Q=   -0.8200 A=    0.0000 R=    0.0000 C=    0.0000
 XYZ=    0.8404    5.7503    5.4736 Q=    0.4100 A=    0.0000 R=    0.0000 C=    0.0000
 XYZ=    0.2647    5.7810    7.0015 Q=    0.4100 A=    0.0000 R=    0.0000 C=    0.0000
 XYZ=    8.2712    0.6834    2.8439 Q=   -0.8200 A=    0.0000 R=    0.0000 C=    0.0000
 XYZ=    8.2100    1.0299    3.7799 Q=    0.4100 A=    0.0000 R=    0.0000 C=    0.0000
 XYZ=    7.3778    0.3374    2.5574 Q=    0.4100 A=    0.0000 R=    0.0000 C=    0.0000
 XYZ=   -7.8483   -0.5301   -0.0487 Q=   -0.8200 A=    0.0000 R=    0.0000 C=    0.0000
 XYZ=   -7.7072   -0.9590   -0.9410 Q=    0.4100 A=    0.0000 R=    0.0000 C=    0.0000
 XYZ=   -7.5919   -1.1721    0.6740 Q=    0.4100 A=    0.0000 R=    0.0000 C=    0.0000
 XYZ=    7.6112   -4.3995    2.5324 Q=   -0.8200 A=    0.0000 R=    0.0000 C=    0.0000
 XYZ=    6.8227   -4.1484    3.0937 Q=    0.4100 A=    0.0000 R=    0.0000 C=    0.0000
 XYZ=    7.3926   -4.2556    1.5672 Q=    0.4100 A=    0.0000 R=    0.0000 C=    0.0000
 XYZ=    4.4176    1.5191   -6.7627 Q=   -0.8200 A=    0.0000 R=    0.0000 C=    0.0000
 XYZ=    4.9092    2.1864   -6.2032 Q=    0.4100 A=    0.0000 R=    0.0000 C=    0.0000
 XYZ=    5.0293    0.7623   -6.9933 Q=    0.4100 A=    0.0000 R=    0.0000 C=    0.0000
 XYZ=   -2.3945   -1.6857   -8.9832 Q=   -0.8200 A=    0.0000 R=    0.0000 C=    0.0000
 XYZ=   -2.1885   -2.4736   -9.5635 Q=    0.4100 A=    0.0000 R=    0.0000 C=    0.0000
 XYZ=   -2.7295   -2.0035   -8.0962 Q=    0.4100 A=    0.0000 R=    0.0000 C=    0.0000
 XYZ=    0.5849   -6.0291    5.4083 Q=   -0.8200 A=    0.0000 R=    0.0000 C=    0.0000
 XYZ=   -0.1561   -6.6845    5.5542 Q=    0.4100 A=    0.0000 R=    0.0000 C=    0.0000
 XYZ=    0.5656   -5.3378    6.1307 Q=    0.4100 A=    0.0000 R=    0.0000 C=    0.0000
 XYZ=   -2.0177   -7.0940    2.8100 Q=   -0.8200 A=    0.0000 R=    0.0000 C=    0.0000
 XYZ=   -1.6162   -7.5003    1.9892 Q=    0.4100 A=    0.0000 R=    0.0000 C=    0.0000
 XYZ=   -2.9620   -6.8247    2.6207 Q=    0.4100 A=    0.0000 R=    0.0000 C=    0.0000
 XYZ=   -6.1806    2.1784   -6.5685 Q=   -0.8200 A=    0.0000 R=    0.0000 C=    0.0000
 XYZ=   -6.3957    1.2895   -6.9731 Q=    0.4100 A=    0.0000 R=    0.0000 C=    0.0000
 XYZ=   -5.9762    2.0615   -5.5967 Q=    0.4100 A=    0.0000 R=    0.0000 C=    0.0000
 XYZ=   -7.8911    2.6877   -2.2321 Q=   -0.8200 A=    0.0000 R=    0.0000 C=    0.0000
 XYZ=   -7.4842    3.0060   -3.0884 Q=    0.4100 A=    0.0000 R=    0.0000 C=    0.0000
 XYZ=   -8.7517    2.2170   -2.4268 Q=    0.4100 A=    0.0000 R=    0.0000 C=    0.0000
 XYZ=    4.7649   -0.7866    6.6978 Q=   -0.8200 A=    0.0000 R=    0.0000 C=    0.0000
 XYZ=    5.6266   -0.5533    7.1484 Q=    0.4100 A=    0.0000 R=    0.0000 C=    0.0000
 XYZ=    4.7905   -1.7422    6.4041 Q=    0.4100 A=    0.0000 R=    0.0000 C=    0.0000
 XYZ=   -1.4708   -8.3182    0.8915 Q=   -0.8200 A=    0.0000 R=    0.0000 C=    0.0000
 XYZ=   -0.5912   -8.3118    0.4158 Q=    0.4100 A=    0.0000 R=    0.0000 C=    0.0000
 XYZ=   -1.9414   -9.1817    0.7102 Q=    0.4100 A=    0.0000 R=    0.0000 C=    0.0000
 XYZ=    3.3895   -2.2936   -9.2296 Q=   -0.8200 A=    0.0000 R=    0.0000 C=    0.0000
 XYZ=    3.5267   -2.1685   -8.2470 Q=    0.4100 A=    0.0000 R=    0.0000 C=    0.0000
 XYZ=    4.2760   -2.4090   -9.6778 Q=    0.4100 A=    0.0000 R=    0.0000 C=    0.0000
 XYZ=   -2.2745    5.3657   -7.2821 Q=   -0.8200 A=    0.0000 R=    0.0000 C=    0.0000
 XYZ=   -2.3216    5.4830   -6.2901 Q=    0.4100 A=    0.0000 R=    0.0000 C=    0.0000
 XYZ=   -3.0552    5.8219   -7.7091 Q=    0.4100 A=    0.0000 R=    0.0000 C=    0.0000
 XYZ=    4.5666    4.6881   -4.5580 Q=   -0.8200 A=    0.0000 R=    0.0000 C=    0.0000
 XYZ=    5.1617    5.4913   -4.5830 Q=    0.4100 A=    0.0000 R=    0.0000 C=    0.0000
 XYZ=    4.9877    3.9449   -5.0780 Q=    0.4100 A=    0.0000 R=    0.0000 C=    0.0000
 XYZ=    3.5001    6.7355    1.0558 Q=   -0.8200 A=    0.0000 R=    0.0000 C=    0.0000
 XYZ=    2.7677    7.4160    1.0800 Q=    0.4100 A=    0.0000 R=    0.0000 C=    0.0000
 XYZ=    4.3444    7.1421    1.4049 Q=    0.4100 A=    0.0000 R=    0.0000 C=    0.0000
 XYZ=   -0.3300    4.6696   -8.4773 Q=   -0.8200 A=    0.0000 R=    0.0000 C=    0.0000
 XYZ=   -1.0974    5.0697   -7.9761 Q=    0.4100 A=    0.0000 R=    0.0000 C=    0.0000
 XYZ=    0.3058    4.2469   -7.8315 Q=    0.4100 A=    0.0000 R=    0.0000 C=    0.0000
 XYZ=    3.3058    4.8628    5.9376 Q=   -0.8200 A=    0.0000 R=    0.0000 C=    0.0000
 XYZ=    4.0799    5.0547    6.5408 Q=    0.4100 A=    0.0000 R=    0.0000 C=    0.0000
 XYZ=    2.4976    5.3512    6.2668 Q=    0.4100 A=    0.0000 R=    0.0000 C=    0.0000
 XYZ=   -2.4952   -1.2728    9.1069 Q=   -0.8200 A=    0.0000 R=    0.0000 C=    0.0000
 XYZ=   -2.0219   -1.2775    8.2260 Q=    0.4100 A=    0.0000 R=    0.0000 C=    0.0000
 XYZ=   -1.9895   -1.8366    9.7599 Q=    0.4100 A=    0.0000 R=    0.0000 C=    0.0000
 XYZ=   -7.4279    1.0133    5.3505 Q=   -0.8200 A=    0.0000 R=    0.0000 C=    0.0000
 XYZ=   -6.5595    0.5729    5.1226 Q=    0.4100 A=    0.0000 R=    0.0000 C=    0.0000
 XYZ=   -7.8961    0.4817    6.0564 Q=    0.4100 A=    0.0000 R=    0.0000 C=    0.0000
 XYZ=   -8.5848    1.1143    3.3949 Q=   -0.8200 A=    0.0000 R=    0.0000 C=    0.0000
 XYZ=   -8.0363    1.6382    2.7432 Q=    0.4100 A=    0.0000 R=    0.0000 C=    0.0000
 XYZ=   -8.0639    0.9821    4.2383 Q=    0.4100 A=    0.0000 R=    0.0000 C=    0.0000
 XYZ=    2.7152   -0.4359    8.0333 Q=   -0.8200 A=    0.0000 R=    0.0000 C=    0.0000
 XYZ=    2.9118   -0.2885    9.0027 Q=    0.4100 A=    0.0000 R=    0.0000 C=    0.0000
 XYZ=    3.5737   -0.5411    7.5314 Q=    0.4100 A=    0.0000 R=    0.0000 C=    0.0000
 XYZ=    8.5467   -3.1598   -4.9120 Q=   -0.8200 A=    0.0000 R=    0.0000 C=    0.0000
 XYZ=    8.1029   -2.7410   -4.1197 Q=    0.4100 A=    0.0000 R=    0.0000 C=    0.0000
 XYZ=    8.8726   -2.4432   -5.5288 Q=    0.4100 A=    0.0000 R=    0.0000 C=    0.0000
 XYZ=   -8.1027    5.0107   -1.2508 Q=   -0.8200 A=    0.0000 R=    0.0000 C=    0.0000
 XYZ=   -7.9044    5.7497   -1.8948 Q=    0.4100 A=    0.0000 R=    0.0000 C=    0.0000
 XYZ=   -7.9772    4.1292   -1.7061 Q=    0.4100 A=    0.0000 R=    0.0000 C=    0.0000
 XYZ=    6.7204   -6.7955    2.7412 Q=   -0.8200 A=    0.0000 R=    0.0000 C=    0.0000
 XYZ=    7.2158   -5.9387    2.8842 Q=    0.4100 A=    0.0000 R=    0.0000 C=    0.0000
 XYZ=    5.7363   -6.6197    2.7667 Q=    0.4100 A=    0.0000 R=    0.0000 C=    0.0000
 XYZ=   -0.1512   -0.9412   -9.7147 Q=   -0.8200 A=    0.0000 R=    0.0000 C=    0.0000
 XYZ=    0.4537   -1.7111   -9.9178 Q=    0.4100 A=    0.0000 R=    0.0000 C=    0.0000
 XYZ=   -0.9482   -1.2685   -9.2069 Q=    0.4100 A=    0.0000 R=    0.0000 C=    0.0000
 XYZ=    9.3825   -1.1398   -2.1662 Q=   -0.8200 A=    0.0000 R=    0.0000 C=    0.0000
 XYZ=    8.7040   -0.9709   -1.4513 Q=    0.4100 A=    0.0000 R=    0.0000 C=    0.0000
 XYZ=   10.2273   -1.4772   -1.7509 Q=    0.4100 A=    0.0000 R=    0.0000 C=    0.0000
 XYZ=   -4.4069    3.4748   -7.8304 Q=   -0.8200 A=    0.0000 R=    0.0000 C=    0.0000
 XYZ=   -4.9265    3.0407   -7.0944 Q=    0.4100 A=    0.0000 R=    0.0000 C=    0.0000
 XYZ=   -4.4579    4.4688   -7.7330 Q=    0.4100 A=    0.0000 R=    0.0000 C=    0.0000
 XYZ=   -4.3706    8.5745   -2.9675 Q=   -0.8200 A=    0.0000 R=    0.0000 C=    0.0000
 XYZ=   -4.5300    8.5752   -1.9803 Q=    0.4100 A=    0.0000 R=    0.0000 C=    0.0000
 XYZ=   -4.2178    7.6369   -3.2797 Q=    0.4100 A=    0.0000 R=    0.0000 C=    0.0000
 XYZ=    1.0001   -5.8604   -7.9445 Q=   -0.8200 A=    0.0000 R=    0.0000 C=    0.0000
 XYZ=    0.9641   -6.8555   -7.8514 Q=    0.4100 A=    0.0000 R=    0.0000 C=    0.0000
 XYZ=    1.9543   -5.5626   -7.9729 Q=    0.4100 A=    0.0000 R=    0.0000 C=    0.0000
 XYZ=   -4.5811    8.9119   -0.6293 Q=   -0.8200 A=    0.0000 R=    0.0000 C=    0.0000
 XYZ=   -4.8300    9.7424   -0.1311 Q=    0.4100 A=    0.0000 R=    0.0000 C=    0.0000
 XYZ=   -3.6435    8.6525   -0.3974 Q=    0.4100 A=    0.0000 R=    0.0000 C=    0.0000
 XYZ=    8.0079    3.4065   -0.7699 Q=   -0.8200 A=    0.0000 R=    0.0000 C=    0.0000
 XYZ=    7.5897    2.5838   -0.3849 Q=    0.4100 A=    0.0000 R=    0.0000 C=    0.0000
 XYZ=    8.4489    3.9290   -0.0400 Q=    0.4100 A=    0.0000 R=    0.0000 C=    0.0000
 XYZ=   -0.3053    9.3599   -0.5408 Q=   -0.8200 A=    0.0000 R=    0.0000 C=    0.0000
 XYZ=   -0.2306    9.0497   -1.4886 Q=    0.4100 A=    0.0000 R=    0.0000 C=    0.0000
 XYZ=    0.3652    8.8765    0.0219 Q=    0.4100 A=    0.0000 R=    0.0000 C=    0.0000
 XYZ=   -6.2939   -1.7706    6.8630 Q=   -0.8200 A=    0.0000 R=    0.0000 C=    0.0000
 XYZ=   -5.8754   -1.0743    6.2798 Q=    0.4100 A=    0.0000 R=    0.0000 C=    0.0000
 XYZ=   -5.5857   -2.2167    7.4102 Q=    0.4100 A=    0.0000 R=    0.0000 C=    0.0000
 XYZ=    5.8883    5.9731    3.6611 Q=   -0.8200 A=    0.0000 R=    0.0000 C=    0.0000
 XYZ=    5.0355    5.4580    3.7479 Q=    0.4100 A=    0.0000 R=    0.0000 C=    0.0000
 XYZ=    6.6081    5.3703    3.3167 Q=    0.4100 A=    0.0000 R=    0.0000 C=    0.0000
 XYZ=   -6.4326   -5.6821   -1.7751 Q=   -0.8200 A=    0.0000 R=    0.0000 C=    0.0000
 XYZ=   -7.2258   -5.9995   -2.2949 Q=    0.4100 A=    0.0000 R=    0.0000 C=    0.0000
 XYZ=   -5.7950   -5.2181   -2.3901 Q=    0.4100 A=    0.0000 R=    0.0000 C=    0.0000
 XYZ=   -1.7830   -6.2745   -7.4969 Q=   -0.8200 A=    0.0000 R=    0.0000 C=    0.0000
 XYZ=   -0.7992   -6.1203   -7.4050 Q=    0.4100 A=    0.0000 R=    0.0000 C=    0.0000
 XYZ=   -2.1416   -6.6553   -6.6445 Q=    0.4100 A=    0.0000 R=    0.0000 C=    0.0000
 XYZ=   -8.9597    4.1978    2.3579 Q=   -0.8200 A=    0.0000 R=    0.0000 C=    0.0000
 XYZ=   -8.2466    3.5066    2.2402 Q=    0.4100 A=    0.0000 R=    0.0000 C=    0.0000
 XYZ=   -9.7175    3.8090    2.8818 Q=    0.4100 A=    0.0000 R=    0.0000 C=    0.0000
 XYZ=    5.7375    3.1529   -5.6866 Q=   -0.8200 A=    0.0000 R=    0.0000 C=    0.0000
 XYZ=    6.1831    3.9299   -6.1313 Q=    0.4100 A=    0.0000 R=    0.0000 C=    0.0000
 XYZ=    6.3906    2.6942   -5.0841 Q=    0.4100 A=    0.0000 R=    0.0000 C=    0.0000
 XYZ=   -4.7803   -5.5676    4.0744 Q=   -0.8200 A=    0.0000 R=    0.0000 C=    0.0000
 XYZ=   -3.9277   -5.3875    4.5652 Q=    0.4100 A=    0.0000 R=    0.0000 C=    0.0000
 XYZ=   -4.5786   -6.0499    3.2220 Q=    0.4100 A=    0.0000 R=    0.0000 C=    0.0000
 XYZ=   -0.5343    5.2457    8.2706 Q=   -0.8200 A=    0.0000 R=    0.0000 C=    0.0000
 XYZ=   -0.3181    5.4404    9.2274 Q=    0.4100 A=    0.0000 R=    0.0000 C=    0.0000
 XYZ=   -0.2045    4.3318    8.0337 Q=    0.4100 A=    0.0000 R=    0.0000 C=    0.0000
 XYZ=    8.8617   -1.3548    1.3093 Q=   -0.8200 A=    0.0000 R=    0.0000 C=    0.0000
 XYZ=    9.1785   -2.1729    1.7893 Q=    0.4100 A=    0.0000 R=    0.0000 C=    0.0000
 XYZ=    8.7707   -0.6009    1.9600 Q=    0.4100 A=    0.0000 R=    0.0000 C=    0.0000
 XYZ=   -3.3914    0.2858   -9.7883 Q=   -0.8200 A=    0.0000 R=    0.0000 C=    0.0000
 XYZ=   -2.9281   -0.4487   -9.2924 Q=    0.4100 A=    0.0000 R=    0.0000 C=    0.0000
 XYZ=   -4.3565    0.0515   -9.9058 Q=    0.4100 A=    0.0000 R=    0.0000 C=    0.0000
 XYZ=    1.1979    0.9194   -9.5720 Q=   -0.8200 A=    0.0000 R=    0.0000 C=    0.0000
 XYZ=    0.6106    1.7165   -9.7132 Q=    0.4100 A=    0.0000 R=    0.0000 C=    0.0000
 XYZ=    0.6804    0.0857   -9.7650 Q=    0.4100 A=    0.0000 R=    0.0000 C=    0.0000
 XYZ=    7.5043    4.2616    3.0686 Q=   -0.8200 A=    0.0000 R=    0.0000 C=    0.0000
 XYZ=    7.8623    3.8275    3.8953 Q=    0.4100 A=    0.0000 R=    0.0000 C=    0.0000
 XYZ=    6.6957    3.7642    2.7544 Q=    0.4100 A=    0.0000 R=    0.0000 C=    0.0000
 XYZ=    6.3001   -4.6534   -6.7433 Q=   -0.8200 A=    0.0000 R=    0.0000 C=    0.0000
 XYZ=    7.0714   -5.0825   -6.2731 Q=    0.4100 A=    0.0000 R=    0.0000 C=    0.0000
 XYZ=    5.8499   -5.3275   -7.3288 Q=    0.4100 A=    0.0000 R=    0.0000 C=    0.0000
 XYZ=    6.9694   -2.6241   -7.6531 Q=   -0.8200 A=    0.0000 R=    0.0000 C=    0.0000
 XYZ=    6.4365   -1.8201   -7.3890 Q=    0.4100 A=    0.0000 R=    0.0000 C=    0.0000
 XYZ=    6.6254   -3.4267   -7.1658 Q=    0.4100 A=    0.0000 R=    0.0000 C=    0.0000
 XYZ=   -6.6484    4.8534    4.5287 Q=   -0.8200 A=    0.0000 R=    0.0000 C=    0.0000
 XYZ=   -7.3308    5.5522    4.3142 Q=    0.4100 A=    0.0000 R=    0.0000 C=    0.0000
 XYZ=   -7.0922    4.0846    4.9893 Q=    0.4100 A=    0.0000 R=    0.0000 C=    0.0000
 XYZ=   -4.2488   -6.8025    2.1363 Q=   -0.8200 A=    0.0000 R=    0.0000 C=    0.0000
 XYZ=   -4.2791   -7.7996    2.2073 Q=    0.4100 A=    0.0000 R=    0.0000 C=    0.0000
 XYZ=   -4.8842   -6.4996    1.4259 Q=    0.4100 A=    0.0000 R=    0.0000 C=    0.0000
 XYZ=   -8.9486   -1.0917    2.8714 Q=   -0.8200 A=    0.0000 R=    0.0000 C=    0.0000
 XYZ=   -8.1802   -1.5206    2.3964 Q=    0.4100 A=    0.0000 R=    0.0000 C=    0.0000
 XYZ=   -8.7457   -0.1252    3.0286 Q=    0.4100 A=    0.0000 R=    0.0000 C=    0.0000
 XYZ=   -1.0220   -9.0691   -5.7464 Q=   -0.8200 A=    0.0000 R=    0.0000 C=    0.0000
 XYZ=   -1.3525   -8.1714   -5.4551 Q=    0.4100 A=    0.0000 R=    0.0000 C=    0.0000
 XYZ=   -1.6982   -9.4941   -6.3483 Q=    0.4100 A=    0.0000 R=    0.0000 C=    0.0000
 XYZ=   -6.3230    7.7447    0.3087 Q=   -0.8200 A=    0.0000 R=    0.0000 C=    0.0000
 XYZ=   -5.6987    8.1815   -0.3390 Q=    0.4100 A=    0.0000 R=    0.0000 C=    0.0000
 XYZ=   -6.6848    8.4324    0.9382 Q=    0.4100 A=    0.0000 R=    0.0000 C=    0.0000
 XYZ=    7.5866    2.2680   -4.4990 Q=   -0.8200 A=    0.0000 R=    0.0000 C=    0.0000
 XYZ=    7.6762    3.2251   -4.2233 Q=    0.4100 A=    0.0000 R=    0.0000 C=    0.0000
 XYZ=    8.2110    1.7053   -3.9573 Q=    0.4100 A=    0.0000 R=    0.0000 C=    0.0000
 XYZ=    7.6989   -6.2550   -3.3049 Q=   -0.8200 A=    0.0000 R=    0.0000 C=    0.0000
 XYZ=    7.8104   -5.9605   -4.2541 Q=    0.4100 A=    0.0000 R=    0.0000 C=    0.0000
 XYZ=    8.2743   -7.0550   -3.1344 Q=    0.4100 A=    0.0000 R=    0.0000 C=    0.0000
 XYZ=   -2.8565   -7.2429   -5.7054 Q=   -0.8200 A=    0.0000 R=    0.0000 C=    0.0000
 XYZ=   -3.1715   -7.6445   -6.5654 Q=    0.4100 A=    0.0000 R=    0.0000 C=    0.0000
 XYZ=   -3.6441   -7.0458   -5.1215 Q=    0.4100 A=    0.0000 R=    0.0000 C=    0.0000
 XYZ=    3.2625   -7.8142   -7.1216 Q=   -0.8200 A=    0.0000 R=    0.0000 C=    0.0000
 XYZ=    4.0541   -8.3804   -7.3513 Q=    0.4100 A=    0.0000 R=    0.0000 C=    0.0000
 XYZ=    3.4509   -6.8630   -7.3664 Q=    0.4100 A=    0.0000 R=    0.0000 C=    0.0000
 XYZ=   -6.6354   -4.1453    3.6086 Q=   -0.8200 A=    0.0000 R=    0.0000 C=    0.0000
 XYZ=   -6.9016   -3.6841    4.4550 Q=    0.4100 A=    0.0000 R=    0.0000 C=    0.0000
 XYZ=   -5.8802   -4.7738    3.7948 Q=    0.4100 A=    0.0000 R=    0.0000 C=    0.0000
 XYZ=   -2.0770    7.3660    6.2250 Q=   -0.8200 A=    0.0000 R=    0.0000 C=    0.0000
 XYZ=   -2.9900    7.7044    5.9969 Q=    0.4100 A=    0.0000 R=    0.0000 C=    0.0000
 XYZ=   -2.1451    6.4295    6.5692 Q=    0.4100 A=    0.0000 R=    0.0000 C=    0.0000
 XYZ=   -5.4471    6.3628    6.0025 Q=   -0.8200 A=    0.0000 R=    0.0000 C=    0.0000
 XYZ=   -6.3183    6.6203    6.4206 Q=    0.4100 A=    0.0000 R=    0.0000 C=    0.0000
 XYZ=   -5.6135    5.7206    5.2542 Q=    0.4100 A=    0.0000 R=    0.0000 C=    0.0000
 XYZ=  -10.2014   -0.1114   -0.5272 Q=   -0.8200 A=    0.0000 R=    0.0000 C=    0.0000
 XYZ=  -10.4197    0.8424   -0.7336 Q=    0.4100 A=    0.0000 R=    0.0000 C=    0.0000
 XYZ=   -9.2106   -0.2151   -0.4399 Q=    0.4100 A=    0.0000 R=    0.0000 C=    0.0000
 XYZ=   -0.1725   -3.9733    9.2394 Q=   -0.8200 A=    0.0000 R=    0.0000 C=    0.0000
 XYZ=   -0.3309   -3.8176    8.2643 Q=    0.4100 A=    0.0000 R=    0.0000 C=    0.0000
 XYZ=    0.8060   -4.1004    9.4019 Q=    0.4100 A=    0.0000 R=    0.0000 C=    0.0000
 XYZ=   -0.0741   -4.7694   -9.6036 Q=   -0.8200 A=    0.0000 R=    0.0000 C=    0.0000
 XYZ=    0.4246   -3.9328   -9.8304 Q=    0.4100 A=    0.0000 R=    0.0000 C=    0.0000
 XYZ=    0.3944   -5.2452   -8.8591 Q=    0.4100 A=    0.0000 R=    0.0000 C=    0.0000
 XYZ=   -3.5039    2.6119   -9.7543 Q=   -0.8200 A=    0.0000 R=    0.0000 C=    0.0000
 XYZ=   -3.8095    3.0025   -8.8860 Q=    0.4100 A=    0.0000 R=    0.0000 C=    0.0000
 XYZ=   -3.3148    1.6374   -9.6331 Q=    0.4100 A=    0.0000 R=    0.0000 C=    0.0000
 XYZ=    1.1982   -2.8408  -10.1632 Q=   -0.8200 A=    0.0000 R=    0.0000 C=    0.0000
 XYZ=    2.0579   -2.6536   -9.6880 Q=    0.4100 A=    0.0000 R=    0.0000 C=    0.0000
 XYZ=    1.2721   -2.5437  -11.1152 Q=    0.4100 A=    0.0000 R=    0.0000 C=    0.0000
 XYZ=   -2.1858    9.2190   -4.1663 Q=   -0.8200 A=    0.0000 R=    0.0000 C=    0.0000
 XYZ=   -2.0193   10.1705   -3.9075 Q=    0.4100 A=    0.0000 R=    0.0000 C=    0.0000
 XYZ=   -2.9085    8.8382   -3.5894 Q=    0.4100 A=    0.0000 R=    0.0000 C=    0.0000
 XYZ=    9.1767    0.7980   -3.3706 Q=   -0.8200 A=    0.0000 R=    0.0000 C=    0.0000
 XYZ=    9.5640    1.4647   -2.7337 Q=    0.4100 A=    0.0000 R=    0.0000 C=    0.0000
 XYZ=    9.2923   -0.1234   -2.9996 Q=    0.4100 A=    0.0000 R=    0.0000 C=    0.0000
 XYZ=    6.6483    5.1259   -1.6877 Q=   -0.8200 A=    0.0000 R=    0.0000 C=    0.0000
 XYZ=    7.1273    4.3787   -1.2269 Q=    0.4100 A=    0.0000 R=    0.0000 C=    0.0000
 XYZ=    6.5965    5.9157   -1.0765 Q=    0.4100 A=    0.0000 R=    0.0000 C=    0.0000
 XYZ=   -1.5869   -9.1122    4.0801 Q=   -0.8200 A=    0.0000 R=    0.0000 C=    0.0000
 XYZ=   -0.9266   -9.5449    3.4662 Q=    0.4100 A=    0.0000 R=    0.0000 C=    0.0000
 XYZ=   -2.0465   -8.3641    3.6013 Q=    0.4100 A=    0.0000 R=    0.0000 C=    0.0000
 XYZ=    1.0272   -8.1224   -7.3848 Q=   -0.8200 A=    0.0000 R=    0.0000 C=    0.0000
 XYZ=    0.5419   -8.4377   -6.5693 Q=    0.4100 A=    0.0000 R=    0.0000 C=    0.0000
 XYZ=    2.0118   -8.1294   -7.2103 Q=    0.4100 A=    0.0000 R=    0.0000 C=    0.0000
 XYZ=    8.1252   -5.3440   -5.5581 Q=   -0.8200 A=    0.0000 R=    0.0000 C=    0.0000
 XYZ=    8.3358   -4.4111   -5.2662 Q=    0.4100 A=    0.0000 R=    0.0000 C=    0.0000
 XYZ=    8.7466   -5.6110   -6.2948 Q=    0.4100 A=    0.0000 R=    0.0000 C=    0.0000
 XYZ=   -2.6025    4.4973    8.6317 Q=   -0.8200 A=    0.0000 R=    0.0000 C=    0.0000
 XYZ=   -1.7001    4.8963    8.4684 Q=    0.4100 A=    0.0000 R=    0.0000 C=    0.0000
 XYZ=   -2.4968    3.5718    8.9955 Q=    0.4100 A=    0.0000 R=    0.0000 C=    0.0000
 XYZ=   -7.3745    4.0772   -6.5179 Q=   -0.8200 A=    0.0000 R=    0.0000 C=    0.0000
 XYZ=   -7.1253    4.4950   -7.3916 Q=    0.4100 A=    0.0000 R=    0.0000 C=    0.0000
 XYZ=   -6.8516    3.2344   -6.3903 Q=    0.4100 A=    0.0000 R=    0.0000 C=    0.0000
 XYZ=   -4.2422   -2.7546    8.1451 Q=   -0.8200 A=    0.0000 R=    0.0000 C=    0.0000
 XYZ=   -3.7039   -2.0863    8.6586 Q=    0.4100 A=    0.0000 R=    0.0000 C=    0.0000
 XYZ=   -4.1549   -3.6535    8.5745 Q=    0.4100 A=    0.0000 R=    0.0000 C=    0.0000
 XYZ=    4.4444    1.9956    8.2675 Q=   -0.8200 A=    0.0000 R=    0.0000 C=    0.0000
 XYZ=    5.1798    2.5099    7.8263 Q=    0.4100 A=    0.0000 R=    0.0000 C=    0.0000
 XYZ=    3.9826    2.5801    8.9347 Q=    0.4100 A=    0.0000 R=    0.0000 C=    0.0000
 XYZ=   -0.9342   -7.6387    5.7022 Q=   -0.8200 A=    0.0000 R=    0.0000 C=    0.0000
 XYZ=   -1.6976   -7.4545    6.3214 Q=    0.4100 A=    0.0000 R=    0.0000 C=    0.0000
 XYZ=   -1.1990   -8.3477    5.0484 Q=    0.4100 A=    0.0000 R=    0.0000 C=    0.0000
 XYZ=    2.8343   -0.4486  -10.5810 Q=   -0.8200 A=    0.0000 R=    0.0000 C=    0.0000
 XYZ=    2.2428    0.2069  -10.1114 Q=    0.4100 A=    0.0000 R=    0.0000 C=    0.0000
 XYZ=    2.9661   -1.2530  -10.0017 Q=    0.4100 A=    0.0000 R=    0.0000 C=    0.0000
 XYZ=    0.4722    3.3586  -10.4583 Q=   -0.8200 A=    0.0000 R=    0.0000 C=    0.0000
 XYZ=    0.1912    3.8566   -9.6379 Q=    0.4100 A=    0.0000 R=    0.0000 C=    0.0000
 XYZ=    1.1862    3.8736  -10.9327 Q=    0.4100 A=    0.0000 R=    0.0000 C=    0.0000
 XYZ=    7.8326    2.8750    5.7039 Q=   -0.8200 A=    0.0000 R=    0.0000 C=    0.0000
 XYZ=    7.1558    2.3079    5.2346 Q=    0.4100 A=    0.0000 R=    0.0000 C=    0.0000
 XYZ=    8.6730    2.3495    5.8370 Q=    0.4100 A=    0.0000 R=    0.0000 C=    0.0000
 XYZ=    7.1945   -8.1826    0.8141 Q=   -0.8200 A=    0.0000 R=    0.0000 C=    0.0000
 XYZ=    6.7709   -7.7139    1.5892 Q=    0.4100 A=    0.0000 R=    0.0000 C=    0.0000
 XYZ=    7.7299   -8.9592    1.1463 Q=    0.4100 A=    0.0000 R=    0.0000 C=    0.0000
 XYZ=   -3.7203    0.8531    9.3182 Q=   -0.8200 A=    0.0000 R=    0.0000 C=    0.0000
 XYZ=   -3.2048   -0.0014    9.3835 Q=    0.4100 A=    0.0000 R=    0.0000 C=    0.0000
 XYZ=   -4.6997    0.6514    9.3052 Q=    0.4100 A=    0.0000 R=    0.0000 C=    0.0000
 XYZ=    9.7646   -3.1784    2.4092 Q=   -0.8200 A=    0.0000 R=    0.0000 C=    0.0000
 XYZ=    9.0454   -3.8318    2.6455 Q=    0.4100 A=    0.0000 R=    0.0000 C=    0.0000
 XYZ=   10.3620   -3.5775    1.7136 Q=    0.4100 A=    0.0000 R=    0.0000 C=    0.0000
 XYZ=   -6.6224   -5.2021   -4.5540 Q=   -0.8200 A=    0.0000 R=    0.0000 C=    0.0000
 XYZ=   -6.7292   -4.5671   -5.3192 Q=    0.4100 A=    0.0000 R=    0.0000 C=    0.0000
 XYZ=   -7.5193   -5.4027   -4.1598 Q=    0.4100 A=    0.0000 R=    0.0000 C=    0.0000
 XYZ=   -6.9773   -0.0113   -7.8422 Q=   -0.8200 A=    0.0000 R=    0.0000 C=    0.0000
 XYZ=   -7.5110   -0.8425   -7.6864 Q=    0.4100 A=    0.0000 R=    0.0000 C=    0.0000
 XYZ=   -6.1390   -0.2412   -8.3365 Q=    0.4100 A=    0.0000 R=    0.0000 C=    0.0000
 XYZ=   -2.0549    2.4735    9.6533 Q=   -0.8200 A=    0.0000 R=    0.0000 C=    0.0000
 XYZ=   -2.8203    1.8505    9.4918 Q=    0.4100 A=    0.0000 R=    0.0000 C=    0.0000
 XYZ=   -1.9119    2.5778   10.6375 Q=    0.4100 A=    0.0000 R=    0.0000 C=    0.0000
 XYZ=   -9.7997    3.8046    0.1392 Q=   -0.8200 A=    0.0000 R=    0.0000 C=    0.0000
 XYZ=   -9.3611    4.5068   -0.4218 Q=    0.4100 A=    0.0000 R=    0.0000 C=    0.0000
 XYZ=   -9.7214    4.0525    1.1048 Q=    0.4100 A=    0.0000 R=    0.0000 C=    0.0000
 XYZ=   -6.4107   -6.3193    0.5362 Q=   -0.8200 A=    0.0000 R=    0.0000 C=    0.0000
 XYZ=   -6.3631   -5.9792   -0.4030 Q=    0.4100 A=    0.0000 R=    0.0000 C=    0.0000
 XYZ=   -6.3909   -7.3191    0.5300 Q=    0.4100 A=    0.0000 R=    0.0000 C=    0.0000
 XYZ=   -7.7048    3.1881    6.3454 Q=   -0.8200 A=    0.0000 R=    0.0000 C=    0.0000
 XYZ=   -7.7867    2.9799    7.3201 Q=    0.4100 A=    0.0000 R=    0.0000 C=    0.0000
 XYZ=   -7.4727    2.3541    5.8448 Q=    0.4100 A=    0.0000 R=    0.0000 C=    0.0000
 XYZ=   -7.6076   -4.6173    1.5842 Q=   -0.8200 A=    0.0000 R=    0.0000 C=    0.0000
 XYZ=   -6.9534   -5.2059    1.1091 Q=    0.4100 A=    0.0000 R=    0.0000 C=    0.0000
 XYZ=   -7.2902   -4.4519    2.5180 Q=    0.4100 A=    0.0000 R=    0.0000 C=    0.0000
 XYZ=    1.2954    3.6335   10.3636 Q=   -0.8200 A=    0.0000 R=    0.0000 C=    0.0000
 XYZ=    2.2540    3.3492   10.3840 Q=    0.4100 A=    0.0000 R=    0.0000 C=    0.0000
 XYZ=    0.8800    3.3434    9.5014 Q=    0.4100 A=    0.0000 R=    0.0000 C=    0.0000
 XYZ=   -1.5024    0.2224  -11.1893 Q=   -0.8200 A=    0.0000 R=    0.0000 C=    0.0000
 XYZ=   -0.8369   -0.3266  -10.6836 Q=    0.4100 A=    0.0000 R=    0.0000 C=    0.0000
 XYZ=   -2.3849    0.1921  -10.7197 Q=    0.4100 A=    0.0000 R=    0.0000 C=    0.0000
 XYZ=   -3.1619    9.2064    3.5347 Q=   -0.8200 A=    0.0000 R=    0.0000 C=    0.0000
 XYZ=   -3.5840    9.0046    4.4185 Q=    0.4100 A=    0.0000 R=    0.0000 C=    0.0000
 XYZ=   -3.5748   10.0315    3.1488 Q=    0.4100 A=    0.0000 R=    0.0000 C=    0.0000
 XYZ=   -5.2541   -7.0434   -4.6284 Q=   -0.8200 A=    0.0000 R=    0.0000 C=    0.0000
 XYZ=   -5.8125   -6.2138   -4.6363 Q=    0.4100 A=    0.0000 R=    0.0000 C=    0.0000
 XYZ=   -5.6766   -7.7239   -4.0298 Q=    0.4100 A=    0.0000 R=    0.0000 C=    0.0000
 XYZ=   -4.6804    5.5287    8.0864 Q=   -0.8200 A=    0.0000 R=    0.0000 C=    0.0000
 XYZ=   -5.0698    5.6414    7.1722 Q=    0.4100 A=    0.0000 R=    0.0000 C=    0.0000
 XYZ=   -3.7905    5.0778    8.0163 Q=    0.4100 A=    0.0000 R=    0.0000 C=    0.0000
 XYZ=   10.1070    1.9943    1.7638 Q=   -0.8200 A=    0.0000 R=    0.0000 C=    0.0000
 XYZ=    9.3173    1.4972    2.1234 Q=    0.4100 A=    0.0000 R=    0.0000 C=    0.0000
 XYZ=    9.8050    2.8675    1.3812 Q=    0.4100 A=    0.0000 R=    0.0000 C=    0.0000
 XYZ=    9.4446   -5.0180   -0.9827 Q=   -0.8200 A=    0.0000 R=    0.0000 C=    0.0000
 XYZ=    9.6431   -4.8503   -1.9483 Q=    0.4100 A=    0.0000 R=    0.0000 C=    0.0000
 XYZ=    9.2123   -5.9820   -0.8527 Q=    0.4100 A=    0.0000 R=    0.0000 C=    0.0000
 XYZ=   -0.0345    8.5180    6.0348 Q=   -0.8200 A=    0.0000 R=    0.0000 C=    0.0000
 XYZ=    0.6561    7.8200    6.2240 Q=    0.4100 A=    0.0000 R=    0.0000 C=    0.0000
 XYZ=   -0.9455    8.1092    6.0903 Q=    0.4100 A=    0.0000 R=    0.0000 C=    0.0000
 XYZ=   -7.4863   -3.1996    5.4711 Q=   -0.8200 A=    0.0000 R=    0.0000 C=    0.0000
 XYZ=   -8.3786   -2.7653    5.3478 Q=    0.4100 A=    0.0000 R=    0.0000 C=    0.0000
 XYZ=   -6.9577   -2.6886    6.1489 Q=    0.4100 A=    0.0000 R=    0.0000 C=    0.0000
 XYZ=   -6.8983   -3.8132   -6.5392 Q=   -0.8200 A=    0.0000 R=    0.0000 C=    0.0000
 XYZ=   -6.4453   -4.2586   -7.3115 Q=    0.4100 A=    0.0000 R=    0.0000 C=    0.0000
 XYZ=   -7.4584   -3.0551   -6.8734 Q=    0.4100 A=    0.0000 R=    0.0000 C=    0.0000
 XYZ=   10.8319   -1.0027   -0.1980 Q=   -0.8200 A=    0.0000 R=    0.0000 C=    0.0000
 XYZ=   11.6938   -1.3849    0.1352 Q=    0.4100 A=    0.0000 R=    0.0000 C=    0.0000
 XYZ=   10.0979   -1.2268    0.4432 Q=    0.4100 A=    0.0000 R=    0.0000 C=    0.0000
 XYZ=    5.7664    7.4545    1.8845 Q=   -0.8200 A=    0.0000 R=    0.0000 C=    0.0000
 XYZ=    6.0060    8.3969    2.1180 Q=    0.4100 A=    0.0000 R=    0.0000 C=    0.0000
 XYZ=    5.8518    6.8779    2.6971 Q=    0.4100 A=    0.0000 R=    0.0000 C=    0.0000
 XYZ=   -0.7620    9.7165    4.1080 Q=   -0.8200 A=    0.0000 R=    0.0000 C=    0.0000
 XYZ=   -1.7058    9.4532    3.9082 Q=    0.4100 A=    0.0000 R=    0.0000 C=    0.0000
 XYZ=   -0.4767    9.3031    4.9728 Q=    0.4100 A=    0.0000 R=    0.0000 C=    0.0000
 XYZ=    8.9439   -7.2835   -0.6164 Q=   -0.8200 A=    0.0000 R=    0.0000 C=    0.0000
 XYZ=    8.0699   -7.4589   -0.1632 Q=    0.4100 A=    0.0000 R=    0.0000 C=    0.0000
 XYZ=    9.6634   -7.8158   -0.1703 Q=    0.4100 A=    0.0000 R=    0.0000 C=    0.0000
 XYZ=    9.7669    2.6228   -1.8428 Q=   -0.8200 A=    0.0000 R=    0.0000 C=    0.0000
 XYZ=    8.9649    2.9971   -1.3772 Q=    0.4100 A=    0.0000 R=    0.0000 C=    0.0000
 XYZ=   10.2639    2.0203   -1.2183 Q=    0.4100 A=    0.0000 R=    0.0000 C=    0.0000
 XYZ=    8.9419   -1.7830   -6.8730 Q=   -0.8200 A=    0.0000 R=    0.0000 C=    0.0000
 XYZ=    8.1581   -2.2021   -7.3312 Q=    0.4100 A=    0.0000 R=    0.0000 C=    0.0000
 XYZ=    9.0640   -0.8490   -7.2088 Q=    0.4100 A=    0.0000 R=    0.0000 C=    0.0000
 XYZ=    7.7972    4.5254   -3.7471 Q=   -0.8200 A=    0.0000 R=    0.0000 C=    0.0000
 XYZ=    7.4033    4.7984   -2.8694 Q=    0.4100 A=    0.0000 R=    0.0000 C=    0.0000
 XYZ=    8.7951    4.5406   -3.6838 Q=    0.4100 A=    0.0000 R=    0.0000 C=    0.0000
 XYZ=   -1.9781   -3.6455  -10.2236 Q=   -0.8200 A=    0.0000 R=    0.0000 C=    0.0000
 XYZ=   -1.1288   -4.1057   -9.9652 Q=    0.4100 A=    0.0000 R=    0.0000 C=    0.0000
 XYZ=   -2.0121   -3.5419  -11.2176 Q=    0.4100 A=    0.0000 R=    0.0000 C=    0.0000
 XYZ=   -0.1393   11.3510    0.6632 Q=   -0.8200 A=    0.0000 R=    0.0000 C=    0.0000
 XYZ=    0.7347   11.7363    0.3670 Q=    0.4100 A=    0.0000 R=    0.0000 C=    0.0000
 XYZ=   -0.3264   10.5145    0.1482 Q=    0.4100 A=    0.0000 R=    0.0000 C=    0.0000
 XYZ=   -8.7931    5.9697    3.8021 Q=   -0.8200 A=    0.0000 R=    0.0000 C=    0.0000
 XYZ=   -9.1588    5.6205    4.6649 Q=    0.4100 A=    0.0000 R=    0.0000 C=    0.0000
 XYZ=   -8.8751    5.2659    3.0963 Q=    0.4100 A=    0.0000 R=    0.0000 C=    0.0000
 XYZ=    6.0605    3.2966    7.4120 Q=   -0.8200 A=    0.0000 R=    0.0000 C=    0.0000
 XYZ=    6.6778    3.1054    6.6488 Q=    0.4100 A=    0.0000 R=    0.0000 C=    0.0000
 XYZ=    6.5749    3.2778    8.2694 Q=    0.4100 A=    0.0000 R=    0.0000 C=    0.0000
 XYZ=    5.6650   -3.0531   -9.9017 Q=   -0.8200 A=    0.0000 R=    0.0000 C=    0.0000
 XYZ=    6.2710   -3.2901  -10.6611 Q=    0.4100 A=    0.0000 R=    0.0000 C=    0.0000
 XYZ=    6.2110   -2.7393   -9.1249 Q=    0.4100 A=    0.0000 R=    0.0000 C=    0.0000
 XYZ=    5.1761   -5.5078   -8.8798 Q=   -0.8200 A=    0.0000 R=    0.0000 C=    0.0000
 XYZ=    5.6632   -6.1442   -9.4780 Q=    0.4100 A=    0.0000 R=    0.0000 C=    0.0000
 XYZ=    5.0550   -4.6340   -9.3508 Q=    0.4100 A=    0.0000 R=    0.0000 C=    0.0000
 XYZ=   -4.1216    8.2514    5.7244 Q=   -0.8200 A=    0.0000 R=    0.0000 C=    0.0000
 XYZ=   -4.7944    7.5144    5.7895 Q=    0.4100 A=    0.0000 R=    0.0000 C=    0.0000
 XYZ=   -4.5903    9.1343    5.7554 Q=    0.4100 A=    0.0000 R=    0.0000 C=    0.0000
 XYZ=    5.1015    5.3677    7.3278 Q=   -0.8200 A=    0.0000 R=    0.0000 C=    0.0000
 XYZ=    5.8225    6.0545    7.4198 Q=    0.4100 A=    0.0000 R=    0.0000 C=    0.0000
 XYZ=    5.5128    4.4575    7.2774 Q=    0.4100 A=    0.0000 R=    0.0000 C=    0.0000
 XYZ=    5.8189    0.2367    9.0854 Q=   -0.8200 A=    0.0000 R=    0.0000 C=    0.0000
 XYZ=    5.2486    0.9760    8.7272 Q=    0.4100 A=    0.0000 R=    0.0000 C=    0.0000
 XYZ=    6.6207    0.6248    9.5400 Q=    0.4100 A=    0.0000 R=    0.0000 C=    0.0000
 XYZ=   -2.6858   -6.6797   -9.4970 Q=   -0.8200 A=    0.0000 R=    0.0000 C=    0.0000
 XYZ=   -3.3556   -5.9572   -9.6688 Q=    0.4100 A=    0.0000 R=    0.0000 C=    0.0000
 XYZ=   -2.2138   -6.4982   -8.6343 Q=    0.4100 A=    0.0000 R=    0.0000 C=    0.0000
 XYZ=   -8.5220   -0.5368    6.7223 Q=   -0.8200 A=    0.0000 R=    0.0000 C=    0.0000
 XYZ=   -8.9357   -0.8914    5.8838 Q=    0.4100 A=    0.0000 R=    0.0000 C=    0.0000
 XYZ=   -7.6258   -0.9597    6.8565 Q=    0.4100 A=    0.0000 R=    0.0000 C=    0.0000
 XYZ=    6.5930    7.1302   -0.4940 Q=   -0.8200 A=    0.0000 R=    0.0000 C=    0.0000
 XYZ=    5.8350    7.4514   -1.0617 Q=    0.4100 A=    0.0000 R=    0.0000 C=    0.0000
 XYZ=    6.3203    7.1495    0.4679 Q=    0.4100 A=    0.0000 R=    0.0000 C=    0.0000
 XYZ=   -0.7080  -10.9613   -4.4947 Q=   -0.8200 A=    0.0000 R=    0.0000 C=    0.0000
 XYZ=   -0.1270  -10.7745   -3.7025 Q=    0.4100 A=    0.0000 R=    0.0000 C=    0.0000
 XYZ=   -0.8305  -10.1215   -5.0236 Q=    0.4100 A=    0.0000 R=    0.0000 C=    0.0000
 XYZ=    6.2384    6.1050   -4.8141 Q=   -0.8200 A=    0.0000 R=    0.0000 C=    0.0000
 XYZ=    6.9447    5.6808   -4.2474 Q=    0.4100 A=    0.0000 R=    0.0000 C=    0.0000
 XYZ=    6.3178    5.7691   -5.7526 Q=    0.4100 A=    0.0000 R=    0.0000 C=    0.0000
 XYZ=   -1.5327    5.7695  -10.2965 Q=   -0.8200 A=    0.0000 R=    0.0000 C=    0.0000
 XYZ=   -1.9804    5.0165  -10.7788 Q=    0.4100 A=    0.0000 R=    0.0000 C=    0.0000
 XYZ=   -0.8310    5.4034   -9.6852 Q=    0.4100 A=    0.0000 R=    0.0000 C=    0.0000
 XYZ=   10.7875   -4.4641    0.7077 Q=   -0.8200 A=    0.0000 R=    0.0000 C=    0.0000
 XYZ=   10.1702   -4.4568   -0.0791 Q=    0.4100 A=    0.0000 R=    0.0000 C=    0.0000
 XYZ=   10.9329   -5.4066    1.0085 Q=    0.4100 A=    0.0000 R=    0.0000 C=    0.0000
 XYZ=   -4.3303   -9.0597    2.0524 Q=   -0.8200 A=    0.0000 R=    0.0000 C=    0.0000
 XYZ=   -5.1535   -9.0322    1.4854 Q=    0.4100 A=    0.0000 R=    0.0000 C=    0.0000
 XYZ=   -3.5613   -9.3942    1.5075 Q=    0.4100 A=    0.0000 R=    0.0000 C=    0.0000
 XYZ=   -4.4608    5.8707   -8.1547 Q=   -0.8200 A=    0.0000 R=    0.0000 C=    0.0000
 XYZ=   -4.0999    6.5901   -8.7482 Q=    0.4100 A=    0.0000 R=    0.0000 C=    0.0000
 XYZ=   -5.4134    5.6859   -8.3963 Q=    0.4100 A=    0.0000 R=    0.0000 C=    0.0000
 XYZ=   -6.3175   -6.7108    5.5855 Q=   -0.8200 A=    0.0000 R=    0.0000 C=    0.0000
 XYZ=   -5.6575   -6.3203    4.9437 Q=    0.4100 A=    0.0000 R=    0.0000 C=    0.0000
 XYZ=   -6.9928   -6.0160    5.8331 Q=    0.4100 A=    0.0000 R=    0.0000 C=    0.0000
 XYZ=  -10.9148    1.0765    3.6068 Q=   -0.8200 A=    0.0000 R=    0.0000 C=    0.0000
 XYZ=   -9.9267    1.2302    3.6196 Q=    0.4100 A=    0.0000 R=    0.0000 C=    0.0000
 XYZ=  -11.1354    0.3843    2.9195 Q=    0.4100 A=    0.0000 R=    0.0000 C=    0.0000
 XYZ=  -10.9514   -0.6715    1.6903 Q=   -0.8200 A=    0.0000 R=    0.0000 C=    0.0000
 XYZ=  -10.7770   -0.2902    0.7825 Q=    0.4100 A=    0.0000 R=    0.0000 C=    0.0000
 XYZ=  -10.1003   -1.0364    2.0677 Q=    0.4100 A=    0.0000 R=    0.0000 C=    0.0000
 XYZ=   -5.5875   -0.3122   -9.8805 Q=   -0.8200 A=    0.0000 R=    0.0000 C=    0.0000
 XYZ=   -6.2761    0.4126   -9.8582 Q=    0.4100 A=    0.0000 R=    0.0000 C=    0.0000
 XYZ=   -5.9788   -1.1309  -10.3009 Q=    0.4100 A=    0.0000 R=    0.0000 C=    0.0000
 XYZ=    9.0654    4.1772    1.1332 Q=   -0.8200 A=    0.0000 R=    0.0000 C=    0.0000
 XYZ=    8.5365    4.4810    1.9256 Q=    0.4100 A=    0.0000 R=    0.0000 C=    0.0000
 XYZ=    9.9678    4.6078    1.1498 Q=    0.4100 A=    0.0000 R=    0.0000 C=    0.0000
 XYZ=    8.5260   -8.1371    3.6141 Q=   -0.8200 A=    0.0000 R=    0.0000 C=    0.0000
 XYZ=    7.8047   -7.5504    3.2458 Q=    0.4100 A=    0.0000 R=    0.0000 C=    0.0000
 XYZ=    8.1427   -8.7341    4.3188 Q=    0.4100 A=    0.0000 R=    0.0000 C=    0.0000
 XYZ=   -2.8721   -6.7923    7.0359 Q=   -0.8200 A=    0.0000 R=    0.0000 C=    0.0000
 XYZ=   -2.4728   -6.2832    7.7984 Q=    0.4100 A=    0.0000 R=    0.0000 C=    0.0000
 XYZ=   -3.7269   -7.2190    7.3314 Q=    0.4100 A=    0.0000 R=    0.0000 C=    0.0000
 XYZ=   -5.9317    3.0417  -10.0441 Q=   -0.8200 A=    0.0000 R=    0.0000 C=    0.0000
 XYZ=   -6.4634    2.2130   -9.8693 Q=    0.4100 A=    0.0000 R=    0.0000 C=    0.0000
 XYZ=   -4.9685    2.8694   -9.8376 Q=    0.4100 A=    0.0000 R=    0.0000 C=    0.0000
 XYZ=   -1.2732   -2.5296   10.7424 Q=   -0.8200 A=    0.0000 R=    0.0000 C=    0.0000
 XYZ=   -0.5705   -3.0037   10.2119 Q=    0.4100 A=    0.0000 R=    0.0000 C=    0.0000
 XYZ=   -2.0075   -3.1693   10.9697 Q=    0.4100 A=    0.0000 R=    0.0000 C=    0.0000
 XYZ=   -2.6639  -10.1780    0.7205 Q=   -0.8200 A=    0.0000 R=    0.0000 C=    0.0000
 XYZ=   -2.1003  -10.9126    1.0981 Q=    0.4100 A=    0.0000 R=    0.0000 C=    0.0000
 XYZ=   -3.2802  -10.5531    0.0280 Q=    0.4100 A=    0.0000 R=    0.0000 C=    0.0000
 XYZ=  -10.9938    2.0848   -0.9186 Q=   -0.8200 A=    0.0000 R=    0.0000 C=    0.0000
 XYZ=  -11.9351    1.8336   -0.6931 Q=    0.4100 A=    0.0000 R=    0.0000 C=    0.0000
 XYZ=  -10.7465    2.9225   -0.4317 Q=    0.4100 A=    0.0000 R=    0.0000 C=    0.0000
 XYZ=   -9.4443   -1.9328    4.9637 Q=   -0.8200 A=    0.0000 R=    0.0000 C=    0.0000
 XYZ=   -9.3710   -1.5133    4.0589 Q=    0.4100 A=    0.0000 R=    0.0000 C=    0.0000
 XYZ=  -10.0295   -2.7418    4.9096 Q=    0.4100 A=    0.0000 R=    0.0000 C=    0.0000
 XYZ=   -2.6718    4.0450  -11.2957 Q=   -0.8200 A=    0.0000 R=    0.0000 C=    0.0000
 XYZ=   -3.0005    3.4304  -10.5786 Q=    0.4100 A=    0.0000 R=    0.0000 C=    0.0000
 XYZ=   -2.1962    3.5143  -11.9973 Q=    0.4100 A=    0.0000 R=    0.0000 C=    0.0000
 XYZ=   -1.9761   -5.5482    8.9617 Q=   -0.8200 A=    0.0000 R=    0.0000 C=    0.0000
 XYZ=   -1.1864   -4.9761    9.1834 Q=    0.4100 A=    0.0000 R=    0.0000 C=    0.0000
 XYZ=   -2.7963   -5.1623    9.3840 Q=    0.4100 A=    0.0000 R=    0.0000 C=    0.0000
 XYZ=   -5.5322   10.2134   -4.4492 Q=   -0.8200 A=    0.0000 R=    0.0000 C=    0.0000
 XYZ=   -5.2954    9.4003   -3.9174 Q=    0.4100 A=    0.0000 R=    0.0000 C=    0.0000
 XYZ=   -4.8103   10.3970   -5.1165 Q=    0.4100 A=    0.0000 R=    0.0000 C=    0.0000
 XYZ=   -4.1078   -4.9547   -9.9388 Q=   -0.8200 A=    0.0000 R=    0.0000 C=    0.0000
 XYZ=   -4.4892   -5.1312  -10.8462 Q=    0.4100 A=    0.0000 R=    0.0000 C=    0.0000
 XYZ=   -3.3338   -4.3264  -10.0191 Q=    0.4100 A=    0.0000 R=    0.0000 C=    0.0000
 XYZ=  -10.4872    2.2709   -3.2840 Q=   -0.8200 A=    0.0000 R=    0.0000 C=    0.0000
 XYZ=  -10.8012    2.2578   -2.3346 Q=    0.4100 A=    0.0000 R=    0.0000 C=    0.0000
 XYZ=  -11.2329    1.9842   -3.8855 Q=    0.4100 A=    0.0000 R=    0.0000 C=    0.0000
 XYZ=    7.2923    7.2516    5.0490 Q=   -0.8200 A=    0.0000 R=    0.0000 C=    0.0000
 XYZ=    8.0560    6.6529    5.2904 Q=    0.4100 A=    0.0000 R=    0.0000 C=    0.0000
 XYZ=    6.6744    6.7696    4.4278 Q=    0.4100 A=    0.0000 R=    0.0000 C=    0.0000
 XYZ=    3.9546   -0.4968   10.3728 Q=   -0.8200 A=    0.0000 R=    0.0000 C=    0.0000
 XYZ=    4.7365   -0.2994    9.7814 Q=    0.4100 A=    0.0000 R=    0.0000 C=    0.0000
 XYZ=    4.2819   -0.7989   11.2682 Q=    0.4100 A=    0.0000 R=    0.0000 C=    0.0000
 XYZ=   -0.3422   -6.8938  -10.7535 Q=   -0.8200 A=    0.0000 R=    0.0000 C=    0.0000
 XYZ=   -1.2480   -7.1045  -10.3859 Q=    0.4100 A=    0.0000 R=    0.0000 C=    0.0000
 XYZ=    0.0518   -6.1254  -10.2491 Q=    0.4100 A=    0.0000 R=    0.0000 C=    0.0000
 XYZ=    0.4384   -9.5188   -9.0015 Q=   -0.8200 A=    0.0000 R=    0.0000 C=    0.0000
 XYZ=    0.4030   -9.1779   -9.9410 Q=    0.4100 A=    0.0000 R=    0.0000 C=    0.0000
 XYZ=    0.7775   -8.7973   -8.3977 Q=    0.4100 A=    0.0000 R=    0.0000 C=    0.0000
 XYZ=    6.8520    4.9038   -6.8060 Q=   -0.8200 A=    0.0000 R=    0.0000 C=    0.0000
 XYZ=    7.7587    5.3225   -6.7543 Q=    0.4100 A=    0.0000 R=    0.0000 C=    0.0000
 XYZ=    6.6040    4.7633   -7.7646 Q=    0.4100 A=    0.0000 R=    0.0000 C=    0.0000
 XYZ=   -7.2091    1.2318   -9.8025 Q=   -0.8200 A=    0.0000 R=    0.0000 C=    0.0000
 XYZ=   -7.3679    0.8522   -8.8911 Q=    0.4100 A=    0.0000 R=    0.0000 C=    0.0000
 XYZ=   -8.0237    1.0962  -10.3666 Q=    0.4100 A=    0.0000 R=    0.0000 C=    0.0000
 XYZ=   -1.0074    2.3538  -12.1276 Q=   -0.8200 A=    0.0000 R=    0.0000 C=    0.0000
 XYZ=   -0.3050    2.7202  -11.5174 Q=    0.4100 A=    0.0000 R=    0.0000 C=    0.0000
 XYZ=   -1.2819    1.4453  -11.8123 Q=    0.4100 A=    0.0000 R=    0.0000 C=    0.0000
 XYZ=   -3.2730    5.6458   10.4831 Q=   -0.8200 A=    0.0000 R=    0.0000 C=    0.0000
 XYZ=   -3.6156    6.5242   10.1496 Q=    0.4100 A=    0.0000 R=    0.0000 C=    0.0000
 XYZ=   -3.0286    5.0665    9.7055 Q=    0.4100 A=    0.0000 R=    0.0000 C=    0.0000
 XYZ=    4.2237    5.6671    9.4831 Q=   -0.8200 A=    0.0000 R=    0.0000 C=    0.0000
 XYZ=    4.9470    6.1795    9.9461 Q=    0.4100 A=    0.0000 R=    0.0000 C=    0.0000
 XYZ=    4.4793    5.5192    8.5277 Q=    0.4100 A=    0.0000 R=    0.0000 C=    0.0000
 XYZ=    3.6047    3.4500   10.0484 Q=   -0.8200 A=    0.0000 R=    0.0000 C=    0.0000
 XYZ=    4.1055    3.3499   10.9082 Q=    0.4100 A=    0.0000 R=    0.0000 C=    0.0000
 XYZ=    3.8069    4.3434    9.6471 Q=    0.4100 A=    0.0000 R=    0.0000 C=    0.0000
 XYZ=    0.3625    5.7569   10.4127 Q=   -0.8200 A=    0.0000 R=    0.0000 C=    0.0000
 XYZ=   -0.3955    5.6779   11.0602 Q=    0.4100 A=    0.0000 R=    0.0000 C=    0.0000
 XYZ=    0.7792    4.8581   10.2762 Q=    0.4100 A=    0.0000 R=    0.0000 C=    0.0000
 XYZ=   11.0534   -2.3266    4.1491 Q=   -0.8200 A=    0.0000 R=    0.0000 C=    0.0000
 XYZ=   10.5493   -2.8118    3.4346 Q=    0.4100 A=    0.0000 R=    0.0000 C=    0.0000
 XYZ=   10.5954   -2.4585    5.0283 Q=    0.4100 A=    0.0000 R=    0.0000 C=    0.0000
 XYZ=   -6.0317   -7.2768   -7.1001 Q=   -0.8200 A=    0.0000 R=    0.0000 C=    0.0000
 XYZ=   -5.1581   -7.6009   -7.4630 Q=    0.4100 A=    0.0000 R=    0.0000 C=    0.0000
 XYZ=   -5.9257   -7.0455   -6.1330 Q=    0.4100 A=    0.0000 R=    0.0000 C=    0.0000
 XYZ=   -7.6981    8.4964    3.6798 Q=   -0.8200 A=    0.0000 R=    0.0000 C=    0.0000
 XYZ=   -8.2089    7.6420    3.5838 Q=    0.4100 A=    0.0000 R=    0.0000 C=    0.0000
 XYZ=   -7.6428    8.7446    4.6470 Q=    0.4100 A=    0.0000 R=    0.0000 C=    0.0000
 XYZ=    9.2356   -8.0711   -2.8739 Q=   -0.8200 A=    0.0000 R=    0.0000 C=    0.0000
 XYZ=    9.0961   -7.9691   -1.8889 Q=    0.4100 A=    0.0000 R=    0.0000 C=    0.0000
 XYZ=   10.1486   -8.4416   -3.0446 Q=    0.4100 A=    0.0000 R=    0.0000 C=    0.0000
 XYZ=   -8.3279   -2.0058   -7.6658 Q=   -0.8200 A=    0.0000 R=    0.0000 C=    0.0000
 XYZ=   -9.2417   -1.6007   -7.6964 Q=    0.4100 A=    0.0000 R=    0.0000 C=    0.0000
 XYZ=   -8.2910   -2.7918   -8.2830 Q=    0.4100 A=    0.0000 R=    0.0000 C=    0.0000
 XYZ=   11.1050    1.4501   -0.3972 Q=   -0.8200 A=    0.0000 R=    0.0000 C=    0.0000
 XYZ=   11.0417    0.4546   -0.4675 Q=    0.4100 A=    0.0000 R=    0.0000 C=    0.0000
 XYZ=   11.0051    1.7236    0.5596 Q=    0.4100 A=    0.0000 R=    0.0000 C=    0.0000
 XYZ=   -6.6061    4.5223    9.1591 Q=   -0.8200 A=    0.0000 R=    0.0000 C=    0.0000
 XYZ=   -7.1354    5.3636    9.2693 Q=    0.4100 A=    0.0000 R=    0.0000 C=    0.0000
 XYZ=   -5.7540    4.7254    8.6766 Q=    0.4100 A=    0.0000 R=    0.0000 C=    0.0000
 XYZ=   -9.0271    5.2871    6.1661 Q=   -0.8200 A=    0.0000 R=    0.0000 C=    0.0000
 XYZ=   -8.5623    4.4019    6.1879 Q=    0.4100 A=    0.0000 R=    0.0000 C=    0.0000
 XYZ=   -8.4178    5.9923    6.5288 Q=    0.4100 A=    0.0000 R=    0.0000 C=    0.0000
 XYZ=   -0.2400   11.8313    3.0157 Q=   -0.8200 A=    0.0000 R=    0.0000 C=    0.0000
 XYZ=   -0.4721   10.9450    3.4165 Q=    0.4100 A=    0.0000 R=    0.0000 C=    0.0000
 XYZ=   -0.2252   11.7526    2.0189 Q=    0.4100 A=    0.0000 R=    0.0000 C=    0.0000
 XYZ=  -10.4244    4.2213   -4.6596 Q=   -0.8200 A=    0.0000 R=    0.0000 C=    0.0000
 XYZ=   -9.9865    4.0012   -5.5313 Q=    0.4100 A=    0.0000 R=    0.0000 C=    0.0000
 XYZ=  -10.4520    3.4035   -4.0846 Q=    0.4100 A=    0.0000 R=    0.0000 C=    0.0000
 XYZ=    1.3174   -1.6487  -12.2064 Q=   -0.8200 A=    0.0000 R=    0.0000 C=    0.0000
 XYZ=    2.0833   -1.1759  -11.7707 Q=    0.4100 A=    0.0000 R=    0.0000 C=    0.0000
 XYZ=    1.5914   -1.9586  -13.1168 Q=    0.4100 A=    0.0000 R=    0.0000 C=    0.0000
 XYZ=   -6.3160   -5.1894   -8.3157 Q=   -0.8200 A=    0.0000 R=    0.0000 C=    0.0000
 XYZ=   -5.5664   -5.1102   -8.9728 Q=    0.4100 A=    0.0000 R=    0.0000 C=    0.0000
 XYZ=   -6.2051   -6.0285   -7.7831 Q=    0.4100 A=    0.0000 R=    0.0000 C=    0.0000
 XYZ=   -5.4311   10.7641    0.5688 Q=   -0.8200 A=    0.0000 R=    0.0000 C=    0.0000
 XYZ=   -5.7214   11.4414   -0.1073 Q=    0.4100 A=    0.0000 R=    0.0000 C=    0.0000
 XYZ=   -6.2346   10.3894    1.0314 Q=    0.4100 A=    0.0000 R=    0.0000 C=    0.0000
 XYZ=   -3.7103   10.7177   -5.8566 Q=   -0.8200 A=    0.0000 R=    0.0000 C=    0.0000
 XYZ=   -3.1144    9.9459   -5.6348 Q=    0.4100 A=    0.0000 R=    0.0000 C=    0.0000
 XYZ=   -3.1541   11.5338   -6.0136 Q=    0.4100 A=    0.0000 R=    0.0000 C=    0.0000
 XYZ=   -8.2412   -5.4497    6.0325 Q=   -0.8200 A=    0.0000 R=    0.0000 C=    0.0000
 XYZ=   -8.7911   -5.8764    5.3145 Q=    0.4100 A=    0.0000 R=    0.0000 C=    0.0000
 XYZ=   -8.0474   -4.5006    5.7843 Q=    0.4100 A=    0.0000 R=    0.0000 C=    0.0000
 XYZ=   -3.8970   -8.1108   -7.6930 Q=   -0.8200 A=    0.0000 R=    0.0000 C=    0.0000
 XYZ=   -3.4046   -7.6758   -8.4469 Q=    0.4100 A=    0.0000 R=    0.0000 C=    0.0000
 XYZ=   -3.4271   -8.9534   -7.4301 Q=    0.4100 A=    0.0000 R=    0.0000 C=    0.0000
 XYZ=   -3.4765  -10.5125    3.8631 Q=   -0.8200 A=    0.0000 R=    0.0000 C=    0.0000
 XYZ=   -2.7909   -9.9420    4.3154 Q=    0.4100 A=    0.0000 R=    0.0000 C=    0.0000
 XYZ=   -3.8879  -10.0031    3.1073 Q=    0.4100 A=    0.0000 R=    0.0000 C=    0.0000
 XYZ=   -8.4249   -6.4773   -2.8917 Q=   -0.8200 A=    0.0000 R=    0.0000 C=    0.0000
 XYZ=   -8.8368   -5.6202   -2.5824 Q=    0.4100 A=    0.0000 R=    0.0000 C=    0.0000
 XYZ=   -9.1464   -7.1201   -3.1492 Q=    0.4100 A=    0.0000 R=    0.0000 C=    0.0000
 XYZ=    8.8124    4.9267    5.9543 Q=   -0.8200 A=    0.0000 R=    0.0000 C=    0.0000
 XYZ=    8.3254    4.0910    5.7005 Q=    0.4100 A=    0.0000 R=    0.0000 C=    0.0000
 XYZ=    8.8439    5.0045    6.9508 Q=    0.4100 A=    0.0000 R=    0.0000 C=    0.0000
 XYZ=   -0.9543   -1.3929  -12.7366 Q=   -0.8200 A=    0.0000 R=    0.0000 C=    0.0000
 XYZ=   -1.3790   -0.6880  -12.1685 Q=    0.4100 A=    0.0000 R=    0.0000 C=    0.0000
 XYZ=    0.0251   -1.4348  -12.5391 Q=    0.4100 A=    0.0000 R=    0.0000 C=    0.0000
 XYZ=   -9.6553    3.9010   -6.8723 Q=   -0.8200 A=    0.0000 R=    0.0000 C=    0.0000
 XYZ=  -10.0779    4.6327   -7.4071 Q=    0.4100 A=    0.0000 R=    0.0000 C=    0.0000
 XYZ=   -8.6673    4.0489   -6.8275 Q=    0.4100 A=    0.0000 R=    0.0000 C=    0.0000
 XYZ=   -4.4577   11.1123    2.6731 Q=   -0.8200 A=    0.0000 R=    0.0000 C=    0.0000
 XYZ=   -5.2055   11.3743    3.2833 Q=    0.4100 A=    0.0000 R=    0.0000 C=    0.0000
 XYZ=   -4.8128   10.9835    1.7472 Q=    0.4100 A=    0.0000 R=    0.0000 C=    0.0000
 XYZ=   -7.4049    9.6001    1.5543 Q=   -0.8200 A=    0.0000 R=    0.0000 C=    0.0000
 XYZ=   -8.0266   10.3299    1.2695 Q=    0.4100 A=    0.0000 R=    0.0000 C=    0.0000
 XYZ=   -7.6069    9.3398    2.4985 Q=    0.4100 A=    0.0000 R=    0.0000 C=    0.0000
 XYZ=  -10.7210    3.4734    3.6112 Q=   -0.8200 A=    0.0000 R=    0.0000 C=    0.0000
 XYZ=  -11.6576    3.7877    3.4558 Q=    0.4100 A=    0.0000 R=    0.0000 C=    0.0000
 XYZ=  -10.7314    2.5046    3.8588 Q=    0.4100 A=    0.0000 R=    0.0000 C=    0.0000
 XYZ=   -6.4917    5.0673   -8.6672 Q=   -0.8200 A=    0.0000 R=    0.0000 C=    0.0000
 XYZ=   -7.0206    5.7616   -9.1554 Q=    0.4100 A=    0.0000 R=    0.0000 C=    0.0000
 XYZ=   -6.3517    4.2757   -9.2620 Q=    0.4100 A=    0.0000 R=    0.0000 C=    0.0000
 XYZ=   -7.4139    2.3696    8.6765 Q=   -0.8200 A=    0.0000 R=    0.0000 C=    0.0000
 XYZ=   -7.3807    1.9261    9.5722 Q=    0.4100 A=    0.0000 R=    0.0000 C=    0.0000
 XYZ=   -7.0086    3.2816    8.7411 Q=    0.4100 A=    0.0000 R=    0.0000 C=    0.0000
 XYZ=   10.1769    4.5858   -2.9188 Q=   -0.8200 A=    0.0000 R=    0.0000 C=    0.0000
 XYZ=   10.4914    5.2202   -2.2126 Q=    0.4100 A=    0.0000 R=    0.0000 C=    0.0000
 XYZ=   10.0816    3.6709   -2.5263 Q=    0.4100 A=    0.0000 R=    0.0000 C=    0.0000
 XYZ=   -6.8338   -8.2849   -3.2202 Q=   -0.8200 A=    0.0000 R=    0.0000 C=    0.0000
 XYZ=   -7.3725   -7.4534   -3.0842 Q=    0.4100 A=    0.0000 R=    0.0000 C=    0.0000
 XYZ=   -7.4418   -9.0391   -3.4680 Q=    0.4100 A=    0.0000 R=    0.0000 C=    0.0000
 XYZ=    2.5628    0.7920   12.0921 Q=   -0.8200 A=    0.0000 R=    0.0000 C=    0.0000
 XYZ=    2.8686    0.3257   11.2619 Q=    0.4100 A=    0.0000 R=    0.0000 C=    0.0000
 XYZ=    3.3566    1.1421   12.5893 Q=    0.4100 A=    0.0000 R=    0.0000 C=    0.0000
 XYZ=   -9.1042   -6.5416    2.1183 Q=   -0.8200 A=    0.0000 R=    0.0000 C=    0.0000
 XYZ=   -9.8458   -6.7383    1.4769 Q=    0.4100 A=    0.0000 R=    0.0000 C=    0.0000
 XYZ=   -8.6813   -5.6670    1.8806 Q=    0.4100 A=    0.0000 R=    0.0000 C=    0.0000
 XYZ=  -12.4703   -0.5601   -1.2502 Q=   -0.8200 A=    0.0000 R=    0.0000 C=    0.0000
 XYZ=  -12.9258    0.2244   -0.8293 Q=    0.4100 A=    0.0000 R=    0.0000 C=    0.0000
 XYZ=  -11.4962   -0.5403   -1.0247 Q=    0.4100 A=    0.0000 R=    0.0000 C=    0.0000
 XYZ=   -3.9872   -4.7155    9.6169 Q=   -0.8200 A=    0.0000 R=    0.0000 C=    0.0000
 XYZ=   -4.8859   -5.1204    9.7854 Q=    0.4100 A=    0.0000 R=    0.0000 C=    0.0000
 XYZ=   -3.6031   -4.3860   10.4794 Q=    0.4100 A=    0.0000 R=    0.0000 C=    0.0000
 XYZ=   -6.2236   -8.7771    0.6326 Q=   -0.8200 A=    0.0000 R=    0.0000 C=    0.0000
 XYZ=   -7.0481   -8.8897    1.1872 Q=    0.4100 A=    0.0000 R=    0.0000 C=    0.0000
 XYZ=   -6.3207   -9.2944   -0.2178 Q=    0.4100 A=    0.0000 R=    0.0000 C=    0.0000
 XYZ=   -2.9716    7.5500   -9.5515 Q=   -0.8200 A=    0.0000 R=    0.0000 C=    0.0000
 XYZ=   -2.4644    8.3690   -9.2834 Q=    0.4100 A=    0.0000 R=    0.0000 C=    0.0000
 XYZ=   -2.3280    6.8242   -9.7947 Q=    0.4100 A=    0.0000 R=    0.0000 C=    0.0000
[...]
    39  O    0.002659   0.001069   0.000006   0.000000   0.000000  -0.000005
    40  H    0.001715  -0.001016   0.000000   0.000000   0.000000  -0.000005
    41  H    0.000063  -0.000071   0.000000   0.000000   0.000000   0.000000
    42  O    0.000000   0.000000   0.000000   0.000000   0.000000   0.000000
    43  H    0.000000   0.000000   0.000000   0.000000   0.000000   0.000000
    44  H    0.000000   0.000000   0.000000   0.000000   0.000000   0.000000
    45  O    0.000029   0.000021  -0.000208   0.000027   0.000000   0.000000
    46  H    0.000003   0.000020   0.000007   0.000000   0.000000   0.000000
    47  H    0.000000   0.000000   0.000029  -0.000002   0.000000   0.000000
    48  O   -0.000359  -0.000042   0.000000   0.000000   0.000000   0.000048
    49  H    0.000028   0.000000   0.000000   0.000000   0.000000  -0.000005
    50  H   -0.000207   0.000006   0.000000   0.000000   0.000000  -0.000140
              31         32         33         34         35         36
     1  C    0.000019  -0.000510  -0.000911   0.000072  -0.000265  -0.003423
     2  H    0.000000   0.000000   0.000001   0.000000   0.000000  -0.000029
     3  H    0.000000   0.000000   0.000000   0.000000   0.000000  -0.000003
     4  C    0.000199   0.005774   0.002020   0.000143   0.000297   0.005509
     5  H    0.000000  -0.000001   0.000000   0.000000   0.000000  -0.000002
     6  C    0.000071  -0.001243  -0.002286   0.000826  -0.001167   0.001022
     7  H    0.000024   0.000270   0.000967  -0.000006  -0.000099  -0.000005
     8  O    0.000011  -0.000591  -0.008376  -0.000279   0.002745  -0.004149
     9  O   -0.000001  -0.000057  -0.000285   0.000193   0.000041  -0.100472
    10  H    0.000000   0.000000  -0.000066   0.000002   0.000001   0.013515
    11  H    0.000000   0.000028   0.000714  -0.000055  -0.000012   0.006186
    12  O    0.004864   0.003418  -0.026172   0.000174   0.013247   0.000042
    13  H    0.000215   0.004317   0.002502  -0.000062  -0.000628  -0.000001
    14  H   -0.000616   0.003232   0.001934  -0.000332  -0.002973   0.000001
    15  O    0.000000   0.000001   0.000038   0.000000   0.000000  -0.000172
    16  H    0.000000   0.000000   0.000000   0.000000   0.000000   0.000039
    17  H    0.000000   0.000000   0.000000   0.000000   0.000000   0.000077
    18  O    0.000000   0.000000   0.000000   0.000000   0.000000   0.000250
    19  H    0.000000   0.000000   0.000000   0.000000   0.000000  -0.000002
    20  H    0.000000   0.000000   0.000000   0.000000   0.000000   0.000000
    21  O    0.000000   0.000000   0.000000   0.000000   0.000000  -0.000064
    22  H    0.000000   0.000000   0.000000   0.000000   0.000000   0.000000
    23  H    0.000000   0.000000   0.000000   0.000000   0.000000   0.000001
    24  O   -0.000154  -0.000790  -0.059679   0.001547   0.079539  -0.000020
    25  H   -0.000277   0.000321   0.006071  -0.000066   0.001615   0.000000
    26  H   -0.000058   0.000084   0.000226   0.000004  -0.004978   0.000000
    27  O    0.000000   0.000000   0.000000   0.000000   0.000000   0.000004
    28  H    0.000000   0.000000   0.000000   0.000000   0.000000   0.000000
    29  H    0.000000   0.000000   0.000000   0.000000   0.000000   0.000001
    30  O    0.200009   0.132943  -0.000009  -0.000010  -0.000262   0.000000
    31  H    0.218409  -0.010019  -0.000193   0.000000   0.000006   0.000000
    32  H   -0.010019   0.199894   0.000498  -0.000003  -0.000092   0.000000
    33  O   -0.000193   0.000498   9.039437   0.187403   0.109933  -0.000206
    34  H    0.000000  -0.000003   0.187403   0.162708   0.000480   0.000010
    35  H    0.000006  -0.000092   0.109933   0.000480   0.236687   0.000002
    36  O    0.000000   0.000000  -0.000206   0.000010   0.000002   8.974051
    37  H    0.000000   0.000000   0.000003   0.000000   0.000000   0.211208
    38  H    0.000000   0.000000  -0.000091   0.000005  -0.000002   0.134292
    39  O   -0.000002   0.000011  -0.001491   0.000129  -0.001200   0.000005
    40  H    0.000000   0.000002   0.000609  -0.000028  -0.000255   0.000000
    41  H    0.000000   0.000000  -0.000183  -0.000004  -0.000020   0.000000
    42  O    0.000000   0.000000   0.000000   0.000000   0.000000   0.000001
    43  H    0.000000   0.000000   0.000000   0.000000   0.000000   0.000000
    44  H    0.000000   0.000000   0.000000   0.000000   0.000000   0.000000
    45  O    0.000000   0.000000  -0.000338   0.000032   0.000057  -0.000002
    46  H    0.000000   0.000000   0.000148  -0.000018  -0.000126   0.000000
    47  H    0.000000   0.000000   0.000004   0.000000   0.000000   0.000000
    48  O   -0.000663   0.001901  -0.075766   0.000661  -0.001501  -0.000009
    49  H   -0.000003   0.000027   0.000233  -0.000009   0.000011   0.000000
    50  H    0.000002   0.000222   0.024987  -0.000337   0.001690   0.000004
              37         38         39         40         41         42
     1  C   -0.000639   0.002954  -0.000177   0.000023   0.000001  -0.000002
     2  H    0.000007   0.000011   0.000001   0.000000   0.000000   0.000000
     3  H    0.000001  -0.000002   0.000000   0.000000   0.000000   0.000000
     4  C    0.000940  -0.001200  -0.002760   0.000719   0.000056   0.000743
     5  H    0.000000   0.000000   0.000000   0.000000   0.000000  -0.000040
     6  C    0.000241   0.000278  -0.000111  -0.000269   0.000074  -0.000968
     7  H    0.000000  -0.000003  -0.000001   0.000001   0.000000   0.000001
     8  O   -0.000139  -0.001216  -0.000826   0.000242   0.000025   0.000003
     9  O   -0.001246   0.030517   0.000010  -0.000004   0.000000   0.000013
    10  H   -0.001304  -0.004578   0.000000   0.000000   0.000000   0.000002
    11  H   -0.000076   0.003693  -0.000003   0.000000   0.000000  -0.000002
    12  O    0.000000  -0.000006  -0.000065   0.000163  -0.000027   0.000000
    13  H    0.000000  -0.000005  -0.000001  -0.000002   0.000000   0.000000
    14  H    0.000000   0.000000   0.000016   0.000010   0.000000   0.000000
    15  O    0.001058   0.004749   0.000000   0.000000   0.000000  -0.000321
    16  H   -0.000076  -0.000131   0.000000   0.000000   0.000000   0.000000
    17  H    0.000006  -0.000008   0.000000   0.000000   0.000000   0.000269
    18  O    0.000014   0.000077   0.000000   0.000000   0.000000  -0.064973
    19  H    0.000000   0.000000   0.000000   0.000000   0.000000   0.000193
    20  H    0.000000   0.000000   0.000000   0.000000   0.000000  -0.003629
    21  O   -0.000014   0.000000   0.000000   0.000000   0.000000   0.000000
    22  H    0.000000   0.000000   0.000000   0.000000   0.000000   0.000000
    23  H    0.000001   0.000000   0.000000   0.000000   0.000000   0.000000
    24  O    0.000000  -0.000001  -0.026245   0.041361  -0.000889   0.000000
    25  H    0.000000   0.000000   0.002659   0.001715   0.000063   0.000000
    26  H    0.000000   0.000000   0.001069  -0.001016  -0.000071   0.000000
    27  O    0.000000   0.000000   0.000006   0.000000   0.000000   0.000000
    28  H    0.000000   0.000000   0.000000   0.000000   0.000000   0.000000
    29  H    0.000000   0.000000   0.000000   0.000000   0.000000   0.000000
    30  O    0.000000   0.000000  -0.000005  -0.000005   0.000000   0.000000
    31  H    0.000000   0.000000  -0.000002   0.000000   0.000000   0.000000
    32  H    0.000000   0.000000   0.000011   0.000002   0.000000   0.000000
    33  O    0.000003  -0.000091  -0.001491   0.000609  -0.000183   0.000000
    34  H    0.000000   0.000005   0.000129  -0.000028  -0.000004   0.000000
    35  H    0.000000  -0.000002  -0.001200  -0.000255  -0.000020   0.000000
    36  O    0.211208   0.134292   0.000005   0.000000   0.000000   0.000001
    37  H    0.223757  -0.002394   0.000000   0.000000   0.000000   0.000000
    38  H   -0.002394   0.211111   0.000000   0.000000   0.000000   0.000000
    39  O    0.000000   0.000000   8.885048   0.159880   0.214155   0.000000
    40  H    0.000000   0.000000   0.159880   0.185582  -0.005619   0.000000
    41  H    0.000000   0.000000   0.214155  -0.005619   0.190548   0.000000
    42  O    0.000000   0.000000   0.000000   0.000000   0.000000   8.847271
    43  H    0.000000   0.000000   0.000000   0.000000   0.000000   0.198725
    44  H    0.000000   0.000000   0.000000   0.000000   0.000000   0.219755
    45  O    0.000000   0.000000  -0.070453   0.003516   0.000042   0.000000
    46  H    0.000000   0.000000   0.028272   0.000703  -0.003660   0.000000
    47  H    0.000000   0.000000   0.000882  -0.000024   0.000031   0.000000
    48  O    0.000000  -0.000005   0.000034   0.000009   0.000000   0.000000
    49  H    0.000000   0.000000   0.000000   0.000000   0.000000   0.000000
    50  H    0.000000   0.000001   0.000054   0.000006   0.000000   0.000000
              43         44         45         46         47         48
     1  C   -0.000059  -0.000020  -0.000109   0.000040  -0.000002  -0.000406
     2  H    0.000000   0.000000   0.000000   0.000000   0.000000   0.000000
     3  H    0.000000   0.000000   0.000000   0.000000   0.000000   0.000000
     4  C    0.000101   0.000034   0.000608  -0.000090  -0.000009   0.003736
     5  H    0.000000   0.000000   0.000000   0.000000   0.000000   0.000000
     6  C   -0.000026  -0.000018  -0.000482   0.000264   0.000005   0.002622
     7  H    0.000000   0.000000   0.000000   0.000000   0.000000  -0.000127
     8  O    0.000000   0.000000   0.000112  -0.000085  -0.000003  -0.004667
     9  O    0.000000   0.000000   0.000005  -0.000003   0.000000  -0.001428
    10  H    0.000000   0.000000   0.000000   0.000000   0.000000   0.000017
    11  H    0.000000   0.000000   0.000000   0.000000   0.000000   0.000286
    12  O    0.000000   0.000000   0.000006  -0.000002   0.000000  -0.085373
    13  H    0.000000   0.000000   0.000000   0.000000   0.000000  -0.000797
    14  H    0.000000   0.000000   0.000000   0.000000   0.000000   0.081049
    15  O    0.000008  -0.000023   0.000000   0.000000   0.000000  -0.000005
    16  H    0.000000   0.000000   0.000000   0.000000   0.000000   0.000000
    17  H   -0.000004  -0.000006   0.000000   0.000000   0.000000   0.000000
    18  O    0.002676   0.000155   0.000000   0.000000   0.000000  -0.000003
    19  H    0.000006  -0.000083   0.000000   0.000000   0.000000   0.000000
    20  H    0.001462  -0.001539   0.000000   0.000000   0.000000   0.000000
    21  O    0.000000   0.000000   0.000013   0.000000  -0.000001   0.000000
    22  H    0.000000   0.000000   0.000000   0.000000   0.000000   0.000000
    23  H    0.000000   0.000000   0.000000   0.000000   0.000000   0.000000
    24  O    0.000000   0.000000  -0.002191  -0.000162   0.000072  -0.004916
    25  H    0.000000   0.000000   0.000029   0.000003   0.000000  -0.000359
    26  H    0.000000   0.000000   0.000021   0.000020   0.000000  -0.000042
    27  O    0.000000   0.000000  -0.000208   0.000007   0.000029   0.000000
    28  H    0.000000   0.000000   0.000027   0.000000  -0.000002   0.000000
    29  H    0.000000   0.000000   0.000000   0.000000   0.000000   0.000000
    30  O    0.000000   0.000000   0.000000   0.000000   0.000000   0.000048
    31  H    0.000000   0.000000   0.000000   0.000000   0.000000  -0.000663
    32  H    0.000000   0.000000   0.000000   0.000000   0.000000   0.001901
    33  O    0.000000   0.000000  -0.000338   0.000148   0.000004  -0.075766
    34  H    0.000000   0.000000   0.000032  -0.000018   0.000000   0.000661
    35  H    0.000000   0.000000   0.000057  -0.000126   0.000000  -0.001501
    36  O    0.000000   0.000000  -0.000002   0.000000   0.000000  -0.000009
    37  H    0.000000   0.000000   0.000000   0.000000   0.000000   0.000000
    38  H    0.000000   0.000000   0.000000   0.000000   0.000000  -0.000005
    39  O    0.000000   0.000000  -0.070453   0.028272   0.000882   0.000034
    40  H    0.000000   0.000000   0.003516   0.000703  -0.000024   0.000009
    41  H    0.000000   0.000000   0.000042  -0.003660   0.000031   0.000000
    42  O    0.198725   0.219755   0.000000   0.000000   0.000000   0.000000
    43  H    0.155587  -0.002932   0.000000   0.000000   0.000000   0.000000
    44  H   -0.002932   0.199128   0.000000   0.000000   0.000000   0.000000
    45  O    0.000000   0.000000   8.968577   0.137329   0.208868  -0.000002
    46  H    0.000000   0.000000   0.137329   0.215761  -0.002354   0.000000
    47  H    0.000000   0.000000   0.208868  -0.002354   0.193693   0.000000
    48  O    0.000000   0.000000  -0.000002   0.000000   0.000000   8.984670
    49  H    0.000000   0.000000   0.000000   0.000000   0.000000   0.199681
    50  H    0.000000   0.000000   0.000000   0.000000   0.000000   0.117240
              49         50
     1  C    0.000003  -0.000051
     2  H    0.000000   0.000000
     3  H    0.000000   0.000000
     4  C    0.000023  -0.000349
     5  H    0.000000   0.000000
     6  C   -0.000128  -0.000817
     7  H    0.000002   0.000004
     8  O    0.000054  -0.000368
     9  O    0.000065   0.000232
    10  H    0.000000   0.000000
    11  H   -0.000018  -0.000052
    12  O    0.000678   0.013529
    13  H   -0.000137  -0.000826
    14  H   -0.000345  -0.004314
    15  O    0.000000  -0.000002
    16  H    0.000000   0.000000
    17  H    0.000000   0.000000
    18  O    0.000000   0.000000
    19  H    0.000000   0.000000
    20  H    0.000000   0.000000
    21  O    0.000000   0.000000
    22  H    0.000000   0.000000
    23  H    0.000000   0.000000
    24  O    0.000033   0.000390
    25  H    0.000028  -0.000207
    26  H    0.000000   0.000006
    27  O    0.000000   0.000000
    28  H    0.000000   0.000000
    29  H    0.000000   0.000000
    30  O   -0.000005  -0.000140
    31  H   -0.000003   0.000002
    32  H    0.000027   0.000222
    33  O    0.000233   0.024987
    34  H   -0.000009  -0.000337
    35  H    0.000011   0.001690
    36  O    0.000000   0.000004
    37  H    0.000000   0.000000
    38  H    0.000000   0.000001
    39  O    0.000000   0.000054
    40  H    0.000000   0.000006
    41  H    0.000000   0.000000
    42  O    0.000000   0.000000
    43  H    0.000000   0.000000
    44  H    0.000000   0.000000
    45  O    0.000000   0.000000
    46  H    0.000000   0.000000
    47  H    0.000000   0.000000
    48  O    0.199681   0.117240
    49  H    0.141897  -0.001808
    50  H   -0.001808   0.244558
 Mulliken charges:
               1
     1  C   -0.351402
     2  H    0.270785
     3  H    0.229734
     4  C   -0.244758
     5  H    0.229895
     6  C    0.061555
     7  H    0.157718
     8  O   -0.317728
     9  O   -1.034202
    10  H    0.567275
    11  H    0.512145
    12  O   -1.316189
    13  H    0.476731
    14  H    0.642163
    15  O   -1.277832
    16  H    0.638024
    17  H    0.624106
    18  O   -1.209637
    19  H    0.577106
    20  H    0.626459
    21  O   -1.085868
    22  H    0.600035
    23  H    0.530667
    24  O   -1.227340
    25  H    0.650584
    26  H    0.632915
    27  O   -1.174168
    28  H    0.506238
    29  H    0.630000
    30  O   -1.228560
    31  H    0.588154
    32  H    0.660363
    33  O   -1.201677
    34  H    0.646819
    35  H    0.567228
    36  O   -1.237662
    37  H    0.568654
    38  H    0.621949
    39  O   -1.188891
    40  H    0.612681
    41  H    0.605478
    42  O   -1.197042
    43  H    0.644456
    44  H    0.585549
    45  O   -1.245457
    46  H    0.623956
    47  H    0.598811
    48  O   -1.215882
    49  H    0.659719
    50  H    0.606346
 Sum of Mulliken charges =   0.00000
 Mulliken charges with hydrogens summed into heavy atoms:
               1
     1  C    0.149116
     4  C   -0.014863
     6  C    0.219273
     8  O   -0.317728
     9  O    0.045217
    12  O   -0.197295
    15  O   -0.015701
    18  O   -0.006072
    21  O    0.044834
    24  O    0.056159
    27  O   -0.037930
    30  O    0.019956
    33  O    0.012369
    36  O   -0.047059
    39  O    0.029267
    42  O    0.032963
    45  O   -0.022690
    48  O    0.050184
 Electronic spatial extent (au):  <R**2>=          11871.0555
 Charge=              0.0000 electrons
 Dipole moment (field-independent basis, Debye):
    X=            -16.8044    Y=              6.4947    Z=             -6.9531  Tot=             19.3110
 Quadrupole moment (field-independent basis, Debye-Ang):
   XX=           -118.2210   YY=            -74.3336   ZZ=           -142.6525
   XY=            -56.5489   XZ=              4.6333   YZ=            -13.5724
 Traceless Quadrupole moment (field-independent basis, Debye-Ang):
   XX=             -6.4853   YY=             37.4021   ZZ=            -30.9168
   XY=            -56.5489   XZ=              4.6333   YZ=            -13.5724
 Octapole moment (field-independent basis, Debye-Ang**2):
  XXX=           -723.8213  YYY=            253.0801  ZZZ=           -105.4137  XYY=             15.0364
  XXY=           -117.4335  XXZ=            -69.5964  XZZ=            -73.7867  YZZ=              2.7651
  YYZ=             35.4586  XYZ=             98.5845
 Hexadecapole moment (field-independent basis, Debye-Ang**3):
 XXXX=          -4856.7278 YYYY=          -3944.7370 ZZZZ=          -2265.5301 XXXY=          -1500.3389
 XXXZ=            712.3656 YYYX=           -961.8510 YYYZ=             10.2023 ZZZX=             70.7223
 ZZZY=           -527.8037 XXYY=          -2527.7258 XXZZ=          -1178.8115 YYZZ=          -1187.7102
 XXYZ=            253.9153 YYXZ=           -239.4611 ZZXY=           -132.9917
 N-N= 1.114706346649D+03 E-N=-6.196793479360D+03  KE= 1.249378699460D+03
 Leave Link  601 at Fri Sep 14 18:27:22 2018, MaxMem=    33554432 cpu:         9.8
 (Enter /usr/local/pacerepov1/gaussian/G09D01LINDA/g09/l9999.exe)

 Test job not archived.
 1\1\GINC-RICH133-B13-25-L\SP\RLC-wPBE TD-FC\6-31+G(d)\C3H32O15\ROOT\14
 -Sep-2018\0\\#p td=(nstates=15)/6-31+g(d) lc-wpbe charge\\Acroleina in
  Water\\0,1\C,0,0.485154,0.480443,-1.430142\H,0,1.461403,0.187773,-1.0
 55732\H,0,0.429244,0.878853,-2.437062\C,0,-0.605127,0.346563,-0.658432
 \H,0,-1.591686,0.632893,-1.012412\C,0,-0.508516,-0.199107,0.712798\H,0
 ,-1.458487,-0.272107,1.272438\O,0,0.544883,-0.561317,1.236519\O,0,2.11
 5484,1.283188,1.8376\H,0,2.097934,2.237408,1.53889\H,0,1.180954,0.9692
 28,2.00523\O,0,-1.170366,-0.941162,3.36948\H,0,-0.999526,-0.272082,2.6
 4618\H,0,-0.830306,-0.585122,4.239901\O,0,1.572594,3.414728,0.79704\H,
 0,2.149853,3.716708,0.03837\H,0,0.612974,3.587718,0.57504\O,0,-0.78719
 6,4.376538,0.37843\H,0,-0.277906,5.176668,0.06152\H,0,-1.758936,4.4983
 98,0.17613\O,0,3.033034,-0.985922,-4.142099\H,0,2.564604,-0.656422,-4.
 961919\H,0,3.565554,-0.240862,-3.74042\O,0,-0.141456,-3.278042,2.93945
 \H,0,-0.573856,-2.380162,3.02247\H,0,-0.628766,-3.936892,3.51255\O,0,4
 .144033,-2.992282,-3.68554\H,0,4.747743,-2.820562,-2.90701\H,0,3.63162
 4,-2.160652,-3.89975\O,0,-3.381296,-1.386542,3.92405\H,0,-3.281876,-2.
 051782,4.664061\H,0,-2.486676,-1.207092,3.51479\O,0,1.395074,-1.768732
 ,4.427101\H,0,2.285634,-1.547642,4.02951\H,0,0.853084,-2.285252,3.7641
 5\O,0,4.223253,1.537818,1.22431\H,0,4.237343,1.780518,0.25429\H,0,3.27
 8044,1.396878,1.5189\O,0,1.278104,-5.027072,1.99415\H,0,0.542194,-4.42
 5592,2.30514\H,0,1.596734,-5.586832,2.75913\O,0,-3.178546,4.771238,0.1
 6412\H,0,-4.106487,4.519068,-0.11043\H,0,-3.204576,5.211508,1.06162\O,
 0,3.472424,-4.899052,0.97008\H,0,2.572504,-4.772672,1.38749\H,0,3.3971
 44,-5.534762,0.20179\O,0,-0.153366,-0.378272,5.51436\H,0,0.309944,0.34
 8818,6.021\H,0,0.520364,-0.904152,4.995181\\Version=EM64L-G09RevD.01\S
 tate=1-A\HF=-1759.1152403\RMSD=2.576e-09\PG=C01 [X(C3H32O15)]\\@


 THE GREAT THING ABOUT BEING IMPERFECT IS THE JOY IT BRINGS OTHERS.
   -- SIGN OUTSIDE LAKE AGASSIZ JR. HIGH SCHOOL, FARGO, N.D.
 Job cpu time:       0 days  3 hours 39 minutes  6.0 seconds.
 File lengths (MBytes):  RWF=    792 Int=      0 D2E=      0 Chk=     96 Scr=      2
 Normal termination of Gaussian 09 at Fri Sep 14 18:27:26 2018.
