 Entering Gaussian System, Link 0=g09
 Input=Acroleina_water_15_72c.gjf
 Output=Acroleina_water_15_72c.log
 Initial command:
 /usr/local/pacerepov1/gaussian/G09D01LINDA/g09/l1.exe /nv/hp18/holiveira7/scratch/22411990/Gau-5972.inp -scrdir=/nv/hp18/holiveira7/scratch/22411990/
 Entering Link 1 = /usr/local/pacerepov1/gaussian/G09D01LINDA/g09/l1.exe PID=      5973.
  
 Copyright (c) 1988,1990,1992,1993,1995,1998,2003,2009,2013,
            Gaussian, Inc.  All Rights Reserved.
  
 This is part of the Gaussian(R) 09 program.  It is based on
 the Gaussian(R) 03 system (copyright 2003, Gaussian, Inc.),
 the Gaussian(R) 98 system (copyright 1998, Gaussian, Inc.),
 the Gaussian(R) 94 system (copyright 1995, Gaussian, Inc.),
 the Gaussian 92(TM) system (copyright 1992, Gaussian, Inc.),
 the Gaussian 90(TM) system (copyright 1990, Gaussian, Inc.),
 the Gaussian 88(TM) system (copyright 1988, Gaussian, Inc.),
 the Gaussian 86(TM) system (copyright 1986, Carnegie Mellon
 University), and the Gaussian 82(TM) system (copyright 1983,
 Carnegie Mellon University). Gaussian is a federally registered
 trademark of Gaussian, Inc.
  
 This software contains proprietary and confidential information,
 including trade secrets, belonging to Gaussian, Inc.
  
 This software is provided under written license and may be
 used, copied, transmitted, or stored only in accord with that
 written license.
  
 The following legend is applicable only to US Government
 contracts under FAR:
  
                    RESTRICTED RIGHTS LEGEND
  
 Use, reproduction and disclosure by the US Government is
 subject to restrictions as set forth in subparagraphs (a)
 and (c) of the Commercial Computer Software - Restricted
 Rights clause in FAR 52.227-19.
  
 Gaussian, Inc.
 340 Quinnipiac St., Bldg. 40, Wallingford CT 06492
  
  
 ---------------------------------------------------------------
 Warning -- This program may not be used in any manner that
 competes with the business of Gaussian, Inc. or will provide
 assistance to any competitor of Gaussian, Inc.  The licensee
 of this program is prohibited from giving any competitor of
 Gaussian, Inc. access to this program.  By using this program,
 the user acknowledges that Gaussian, Inc. is engaged in the
 business of creating and licensing software in the field of
 computational chemistry and represents and warrants to the
 licensee that it is not a competitor of Gaussian, Inc. and that
 it will not use this program in any manner prohibited above.
 ---------------------------------------------------------------
  

 Cite this work as:
 Gaussian 09, Revision D.01,
 M. J. Frisch, G. W. Trucks, H. B. Schlegel, G. E. Scuseria, 
 M. A. Robb, J. R. Cheeseman, G. Scalmani, V. Barone, B. Mennucci, 
 G. A. Petersson, H. Nakatsuji, M. Caricato, X. Li, H. P. Hratchian, 
 A. F. Izmaylov, J. Bloino, G. Zheng, J. L. Sonnenberg, M. Hada, 
 M. Ehara, K. Toyota, R. Fukuda, J. Hasegawa, M. Ishida, T. Nakajima, 
 Y. Honda, O. Kitao, H. Nakai, T. Vreven, J. A. Montgomery, Jr., 
 J. E. Peralta, F. Ogliaro, M. Bearpark, J. J. Heyd, E. Brothers, 
 K. N. Kudin, V. N. Staroverov, T. Keith, R. Kobayashi, J. Normand, 
 K. Raghavachari, A. Rendell, J. C. Burant, S. S. Iyengar, J. Tomasi, 
 M. Cossi, N. Rega, J. M. Millam, M. Klene, J. E. Knox, J. B. Cross, 
 V. Bakken, C. Adamo, J. Jaramillo, R. Gomperts, R. E. Stratmann, 
 O. Yazyev, A. J. Austin, R. Cammi, C. Pomelli, J. W. Ochterski, 
 R. L. Martin, K. Morokuma, V. G. Zakrzewski, G. A. Voth, 
 P. Salvador, J. J. Dannenberg, S. Dapprich, A. D. Daniels, 
 O. Farkas, J. B. Foresman, J. V. Ortiz, J. Cioslowski, 
 and D. J. Fox, Gaussian, Inc., Wallingford CT, 2013.
 
 ******************************************
 Gaussian 09:  EM64L-G09RevD.01 24-Apr-2013
                14-Sep-2018 
 ******************************************
 %chk=Acrolina_Din_72.chk
 %nprocshared=10
 Will use up to   10 processors via shared memory.
 -------------------------------------------
 #p td=(nstates=15)/6-31+g(d) lc-wpbe charge
 -------------------------------------------
 1/18=10,28=-2,38=1,125=101/1;
 2/12=2,17=6,18=5,40=1/2;
 3/5=1,6=6,7=11,11=9,16=1,25=1,30=1,74=-41/1,2,8,3;
 4//1;
 5/5=2,38=5/2;
 8/6=1,10=2,108=15/1;
 9/41=15,42=1,70=2/14;
 6/7=2,8=2,9=2,10=2/1;
 99/5=1,9=1/99;
 Leave Link    1 at Fri Sep 14 17:27:41 2018, MaxMem=           0 cpu:         2.3
 (Enter /usr/local/pacerepov1/gaussian/G09D01LINDA/g09/l101.exe)
 ------------------
 Acroleina in Water
 ------------------
 Symbolic Z-matrix:
 Charge =  0 Multiplicity = 1
 C                     0.48515   0.48044  -1.43014 
 H                     1.4614    0.18777  -1.05573 
 H                     0.42924   0.87885  -2.43706 
 C                    -0.60513   0.34656  -0.65843 
 H                    -1.59169   0.63289  -1.01241 
 C                    -0.50852  -0.19911   0.7128 
 H                    -1.45849  -0.27211   1.27244 
 O                     0.54488  -0.56132   1.23652 
 O                    -0.81205  -1.70362   2.74161 
 H                    -0.61577  -0.82919   2.29793 
 H                    -0.3397   -1.744     3.62212 
 O                     0.3655    3.00039  -1.88283 
 H                     0.54017   3.67962  -2.59566 
 H                    -0.61217   2.98092  -1.6734 
 O                     2.38388   2.72184  -0.69875 
 H                     3.18343   3.08916  -1.17392 
 H                     1.55231   3.01113  -1.17296 
 O                     3.1596    0.75978   0.30947 
 H                     2.8198    1.5744   -0.16065 
 H                     2.48278   0.45508   0.97961 
 O                    -2.11043   3.024    -1.46295 
 H                    -2.79085   2.46446  -1.93623 
 H                    -2.21118   2.90649  -0.47499 
 O                     0.69697  -3.63916   2.2244 
 H                    -0.11568  -3.05637   2.22864 
 H                     0.419    -4.59891   2.26412 
 O                    -2.61449   3.09228   0.84059 
 H                    -3.59267   2.92891   0.96934 
 H                    -2.21943   3.43775   1.69184 
 O                     3.15522   4.41463   0.89816 
 H                     2.71299   3.68059   0.38275 
 H                     3.10765   5.26515   0.37432 
 O                     1.32515   4.79784   2.33596 
 H                     0.91956   5.56457   1.83836 
 H                     2.01823   4.35874   1.7642 
 O                     2.54585  -3.09457   3.3203 
 H                     3.32621  -2.75881   2.7927 
 H                     1.83213  -3.41065   2.69522 
 O                     0.67233  -2.00541   4.51592 
 H                     1.15627  -1.47721   5.21367 
 H                     1.32817  -2.34983   3.84415 
 O                    -3.15048  -2.43501   3.93724 
 H                    -2.88513  -3.3384    4.27414 
 H                    -2.34736  -1.96838   3.5667 
 O                     3.25671  -5.36158   0.73446 
 H                     2.66044  -4.57468   0.57537 
 H                     3.24074  -5.60092   1.70527 
 O                    -1.61623   4.9892   -2.81452 
 H                    -1.99229   4.23803  -2.27195 
 H                    -1.53292   5.80479  -2.24189 
 
 NAtoms=     50 NQM=       50 NQMF=       0 NMMI=      0 NMMIF=      0
                NMic=       0 NMicF=      0.
                    Isotopes and Nuclear Properties:
 (Nuclear quadrupole moments (NQMom) in fm**2, nuclear magnetic moments (NMagM)
  in nuclear magnetons)

  Atom         1           2           3           4           5           6           7           8           9          10
 IAtWgt=          12           1           1          12           1          12           1          16          16           1
 AtmWgt=  12.0000000   1.0078250   1.0078250  12.0000000   1.0078250  12.0000000   1.0078250  15.9949146  15.9949146   1.0078250
 NucSpn=           0           1           1           0           1           0           1           0           0           1
 AtZEff=   0.0000000   0.0000000   0.0000000   0.0000000   0.0000000   0.0000000   0.0000000   0.0000000   0.0000000   0.0000000
 NQMom=    0.0000000   0.0000000   0.0000000   0.0000000   0.0000000   0.0000000   0.0000000   0.0000000   0.0000000   0.0000000
 NMagM=    0.0000000   2.7928460   2.7928460   0.0000000   2.7928460   0.0000000   2.7928460   0.0000000   0.0000000   2.7928460
 AtZNuc=   6.0000000   1.0000000   1.0000000   6.0000000   1.0000000   6.0000000   1.0000000   8.0000000   8.0000000   1.0000000

  Atom        11          12          13          14          15          16          17          18          19          20
 IAtWgt=           1          16           1           1          16           1           1          16           1           1
 AtmWgt=   1.0078250  15.9949146   1.0078250   1.0078250  15.9949146   1.0078250   1.0078250  15.9949146   1.0078250   1.0078250
 NucSpn=           1           0           1           1           0           1           1           0           1           1
 AtZEff=   0.0000000   0.0000000   0.0000000   0.0000000   0.0000000   0.0000000   0.0000000   0.0000000   0.0000000   0.0000000
 NQMom=    0.0000000   0.0000000   0.0000000   0.0000000   0.0000000   0.0000000   0.0000000   0.0000000   0.0000000   0.0000000
 NMagM=    2.7928460   0.0000000   2.7928460   2.7928460   0.0000000   2.7928460   2.7928460   0.0000000   2.7928460   2.7928460
 AtZNuc=   1.0000000   8.0000000   1.0000000   1.0000000   8.0000000   1.0000000   1.0000000   8.0000000   1.0000000   1.0000000

  Atom        21          22          23          24          25          26          27          28          29          30
 IAtWgt=          16           1           1          16           1           1          16           1           1          16
 AtmWgt=  15.9949146   1.0078250   1.0078250  15.9949146   1.0078250   1.0078250  15.9949146   1.0078250   1.0078250  15.9949146
 NucSpn=           0           1           1           0           1           1           0           1           1           0
 AtZEff=   0.0000000   0.0000000   0.0000000   0.0000000   0.0000000   0.0000000   0.0000000   0.0000000   0.0000000   0.0000000
 NQMom=    0.0000000   0.0000000   0.0000000   0.0000000   0.0000000   0.0000000   0.0000000   0.0000000   0.0000000   0.0000000
 NMagM=    0.0000000   2.7928460   2.7928460   0.0000000   2.7928460   2.7928460   0.0000000   2.7928460   2.7928460   0.0000000
 AtZNuc=   8.0000000   1.0000000   1.0000000   8.0000000   1.0000000   1.0000000   8.0000000   1.0000000   1.0000000   8.0000000

  Atom        31          32          33          34          35          36          37          38          39          40
 IAtWgt=           1           1          16           1           1          16           1           1          16           1
 AtmWgt=   1.0078250   1.0078250  15.9949146   1.0078250   1.0078250  15.9949146   1.0078250   1.0078250  15.9949146   1.0078250
 NucSpn=           1           1           0           1           1           0           1           1           0           1
 AtZEff=   0.0000000   0.0000000   0.0000000   0.0000000   0.0000000   0.0000000   0.0000000   0.0000000   0.0000000   0.0000000
 NQMom=    0.0000000   0.0000000   0.0000000   0.0000000   0.0000000   0.0000000   0.0000000   0.0000000   0.0000000   0.0000000
 NMagM=    2.7928460   2.7928460   0.0000000   2.7928460   2.7928460   0.0000000   2.7928460   2.7928460   0.0000000   2.7928460
 AtZNuc=   1.0000000   1.0000000   8.0000000   1.0000000   1.0000000   8.0000000   1.0000000   1.0000000   8.0000000   1.0000000

  Atom        41          42          43          44          45          46          47          48          49          50
 IAtWgt=           1          16           1           1          16           1           1          16           1           1
 AtmWgt=   1.0078250  15.9949146   1.0078250   1.0078250  15.9949146   1.0078250   1.0078250  15.9949146   1.0078250   1.0078250
 NucSpn=           1           0           1           1           0           1           1           0           1           1
 AtZEff=   0.0000000   0.0000000   0.0000000   0.0000000   0.0000000   0.0000000   0.0000000   0.0000000   0.0000000   0.0000000
 NQMom=    0.0000000   0.0000000   0.0000000   0.0000000   0.0000000   0.0000000   0.0000000   0.0000000   0.0000000   0.0000000
 NMagM=    2.7928460   0.0000000   2.7928460   2.7928460   0.0000000   2.7928460   2.7928460   0.0000000   2.7928460   2.7928460
 AtZNuc=   1.0000000   8.0000000   1.0000000   1.0000000   8.0000000   1.0000000   1.0000000   8.0000000   1.0000000   1.0000000
 Background charge distribution read from input stream:
 Point Charges:
 XYZ=   -4.4868   -1.2362    2.6005 Q=   -0.8200 A=    0.0000 R=    0.0000 C=    0.0000
 XYZ=   -3.9692   -0.7271    1.9128 Q=    0.4100 A=    0.0000 R=    0.0000 C=    0.0000
 XYZ=   -3.8703   -1.8479    3.0963 Q=    0.4100 A=    0.0000 R=    0.0000 C=    0.0000
 XYZ=    5.3570    0.5576    0.0849 Q=   -0.8200 A=    0.0000 R=    0.0000 C=    0.0000
 XYZ=    5.6279    0.6870   -0.8690 Q=    0.4100 A=    0.0000 R=    0.0000 C=    0.0000
 XYZ=    4.3643    0.6475    0.1646 Q=    0.4100 A=    0.0000 R=    0.0000 C=    0.0000
 XYZ=    0.6549    4.6443   -3.7224 Q=   -0.8200 A=    0.0000 R=    0.0000 C=    0.0000
 XYZ=   -0.2881    4.9160   -3.5300 Q=    0.4100 A=    0.0000 R=    0.0000 C=    0.0000
 XYZ=    0.6826    4.1133   -4.5694 Q=    0.4100 A=    0.0000 R=    0.0000 C=    0.0000
 XYZ=   -1.3523    6.4832    0.7338 Q=   -0.8200 A=    0.0000 R=    0.0000 C=    0.0000
 XYZ=   -1.5317    7.3215    1.2488 Q=    0.4100 A=    0.0000 R=    0.0000 C=    0.0000
 XYZ=   -2.0621    5.8088    0.9372 Q=    0.4100 A=    0.0000 R=    0.0000 C=    0.0000
 XYZ=    2.0848   -0.6726    5.7006 Q=   -0.8200 A=    0.0000 R=    0.0000 C=    0.0000
 XYZ=    2.7586   -1.0516    6.3348 Q=    0.4100 A=    0.0000 R=    0.0000 C=    0.0000
 XYZ=    2.5180    0.0279    5.1334 Q=    0.4100 A=    0.0000 R=    0.0000 C=    0.0000
 XYZ=    0.9129    6.8329    1.0041 Q=   -0.8200 A=    0.0000 R=    0.0000 C=    0.0000
 XYZ=    0.8345    7.6495    1.5760 Q=    0.4100 A=    0.0000 R=    0.0000 C=    0.0000
 XYZ=   -0.0009    6.4917    0.7834 Q=    0.4100 A=    0.0000 R=    0.0000 C=    0.0000
 XYZ=    2.2946    5.5158   -2.3568 Q=   -0.8200 A=    0.0000 R=    0.0000 C=    0.0000
 XYZ=    3.0947    4.9202   -2.2842 Q=    0.4100 A=    0.0000 R=    0.0000 C=    0.0000
 XYZ=    1.5544    5.0250   -2.8163 Q=    0.4100 A=    0.0000 R=    0.0000 C=    0.0000
 XYZ=    1.9406    4.7076    4.6165 Q=   -0.8200 A=    0.0000 R=    0.0000 C=    0.0000
 XYZ=    1.7331    4.7662    3.6400 Q=    0.4100 A=    0.0000 R=    0.0000 C=    0.0000
 XYZ=    1.1902    4.2459    5.0896 Q=    0.4100 A=    0.0000 R=    0.0000 C=    0.0000
 XYZ=    2.9957   -0.5483   -6.5834 Q=   -0.8200 A=    0.0000 R=    0.0000 C=    0.0000
 XYZ=    2.9109    0.1431   -7.3009 Q=    0.4100 A=    0.0000 R=    0.0000 C=    0.0000
 XYZ=    2.1369   -0.6075   -6.0744 Q=    0.4100 A=    0.0000 R=    0.0000 C=    0.0000
 XYZ=   -4.5175    2.3655   -2.3242 Q=   -0.8200 A=    0.0000 R=    0.0000 C=    0.0000
 XYZ=   -4.7122    3.0714   -1.6431 Q=    0.4100 A=    0.0000 R=    0.0000 C=    0.0000
 XYZ=   -5.2257    1.6605   -2.2853 Q=    0.4100 A=    0.0000 R=    0.0000 C=    0.0000
 XYZ=   -0.4263   -3.5417    5.9138 Q=   -0.8200 A=    0.0000 R=    0.0000 C=    0.0000
 XYZ=   -0.0031   -2.8537    5.3241 Q=    0.4100 A=    0.0000 R=    0.0000 C=    0.0000
 XYZ=   -1.1214   -4.0416    5.3970 Q=    0.4100 A=    0.0000 R=    0.0000 C=    0.0000
 XYZ=    4.1060    4.0005   -1.7555 Q=   -0.8200 A=    0.0000 R=    0.0000 C=    0.0000
 XYZ=    4.5926    4.8154   -1.4408 Q=    0.4100 A=    0.0000 R=    0.0000 C=    0.0000
 XYZ=    4.6629    3.5210   -2.4338 Q=    0.4100 A=    0.0000 R=    0.0000 C=    0.0000
 XYZ=    4.8676    4.1469    2.4578 Q=   -0.8200 A=    0.0000 R=    0.0000 C=    0.0000
 XYZ=    4.5184    3.6600    3.2585 Q=    0.4100 A=    0.0000 R=    0.0000 C=    0.0000
 XYZ=    4.1027    4.4222    1.8755 Q=    0.4100 A=    0.0000 R=    0.0000 C=    0.0000
 XYZ=   -2.9089    2.1359   -5.5802 Q=   -0.8200 A=    0.0000 R=    0.0000 C=    0.0000
 XYZ=   -3.3638    2.8171   -5.0064 Q=    0.4100 A=    0.0000 R=    0.0000 C=    0.0000
 XYZ=   -2.0931    2.5399   -5.9940 Q=    0.4100 A=    0.0000 R=    0.0000 C=    0.0000
 XYZ=    2.2483   -6.6674   -1.0130 Q=   -0.8200 A=    0.0000 R=    0.0000 C=    0.0000
 XYZ=    2.5514   -6.0797   -0.2628 Q=    0.4100 A=    0.0000 R=    0.0000 C=    0.0000
 XYZ=    3.0362   -6.9296   -1.5703 Q=    0.4100 A=    0.0000 R=    0.0000 C=    0.0000
 XYZ=   -1.4731    6.9810   -1.5551 Q=   -0.8200 A=    0.0000 R=    0.0000 C=    0.0000
 XYZ=   -0.5998    7.3746   -1.8423 Q=    0.4100 A=    0.0000 R=    0.0000 C=    0.0000
 XYZ=   -1.3999    6.6612   -0.6105 Q=    0.4100 A=    0.0000 R=    0.0000 C=    0.0000
 XYZ=    3.6558    1.0218    4.8620 Q=   -0.8200 A=    0.0000 R=    0.0000 C=    0.0000
 XYZ=    4.2469    0.9775    5.6674 Q=    0.4100 A=    0.0000 R=    0.0000 C=    0.0000
 XYZ=    3.6825    1.9454    4.4795 Q=    0.4100 A=    0.0000 R=    0.0000 C=    0.0000
 XYZ=   -0.0751   -5.9249    2.9976 Q=   -0.8200 A=    0.0000 R=    0.0000 C=    0.0000
 XYZ=   -0.2795   -6.5838    2.2737 Q=    0.4100 A=    0.0000 R=    0.0000 C=    0.0000
 XYZ=    0.7007   -6.2524    3.5370 Q=    0.4100 A=    0.0000 R=    0.0000 C=    0.0000
 XYZ=    2.8777    6.5756   -0.1243 Q=   -0.8200 A=    0.0000 R=    0.0000 C=    0.0000
 XYZ=    2.0394    6.7696    0.3854 Q=    0.4100 A=    0.0000 R=    0.0000 C=    0.0000
 XYZ=    2.6435    6.2734   -1.0484 Q=    0.4100 A=    0.0000 R=    0.0000 C=    0.0000
 XYZ=    1.1017    1.1044    7.0692 Q=   -0.8200 A=    0.0000 R=    0.0000 C=    0.0000
 XYZ=    1.3467    0.3299    6.4860 Q=    0.4100 A=    0.0000 R=    0.0000 C=    0.0000
 XYZ=    0.1189    1.0852    7.2533 Q=    0.4100 A=    0.0000 R=    0.0000 C=    0.0000
 XYZ=    4.5777   -2.5064    2.3352 Q=   -0.8200 A=    0.0000 R=    0.0000 C=    0.0000
 XYZ=    5.0116   -1.8384    2.9399 Q=    0.4100 A=    0.0000 R=    0.0000 C=    0.0000
 XYZ=    5.1942   -2.7197    1.5773 Q=    0.4100 A=    0.0000 R=    0.0000 C=    0.0000
 XYZ=   -5.1106    2.9156    0.9398 Q=   -0.8200 A=    0.0000 R=    0.0000 C=    0.0000
 XYZ=   -5.5856    3.5110    0.2918 Q=    0.4100 A=    0.0000 R=    0.0000 C=    0.0000
 XYZ=   -5.2350    3.2667    1.8678 Q=    0.4100 A=    0.0000 R=    0.0000 C=    0.0000
 XYZ=   -2.7677    5.1154   -4.7989 Q=   -0.8200 A=    0.0000 R=    0.0000 C=    0.0000
 XYZ=   -2.1762    5.0808   -3.9932 Q=    0.4100 A=    0.0000 R=    0.0000 C=    0.0000
 XYZ=   -3.6314    4.6531   -4.5983 Q=    0.4100 A=    0.0000 R=    0.0000 C=    0.0000
 XYZ=   -4.5196    3.5463   -4.3437 Q=   -0.8200 A=    0.0000 R=    0.0000 C=    0.0000
 XYZ=   -4.4846    3.0311   -3.4873 Q=    0.4100 A=    0.0000 R=    0.0000 C=    0.0000
 XYZ=   -5.2350    3.1680   -4.9312 Q=    0.4100 A=    0.0000 R=    0.0000 C=    0.0000
 XYZ=    4.5548   -1.9466   -5.0861 Q=   -0.8200 A=    0.0000 R=    0.0000 C=    0.0000
 XYZ=    4.0325   -1.2940   -5.6352 Q=    0.4100 A=    0.0000 R=    0.0000 C=    0.0000
 XYZ=    5.0979   -1.4518   -4.4077 Q=    0.4100 A=    0.0000 R=    0.0000 C=    0.0000
 XYZ=   -1.3556    3.7844   -6.4738 Q=   -0.8200 A=    0.0000 R=    0.0000 C=    0.0000
 XYZ=   -0.3865    3.9059   -6.2593 Q=    0.4100 A=    0.0000 R=    0.0000 C=    0.0000
 XYZ=   -1.8939    4.4701   -5.9837 Q=    0.4100 A=    0.0000 R=    0.0000 C=    0.0000
 XYZ=    1.0855    4.0766   -6.0674 Q=   -0.8200 A=    0.0000 R=    0.0000 C=    0.0000
 XYZ=    1.7120    4.8472   -5.9502 Q=    0.4100 A=    0.0000 R=    0.0000 C=    0.0000
 XYZ=    1.3161    3.5843   -6.9067 Q=    0.4100 A=    0.0000 R=    0.0000 C=    0.0000
 XYZ=    3.7565    3.3224    4.4191 Q=   -0.8200 A=    0.0000 R=    0.0000 C=    0.0000
 XYZ=    4.4728    3.5599    5.0754 Q=    0.4100 A=    0.0000 R=    0.0000 C=    0.0000
 XYZ=    2.9878    3.9538    4.5218 Q=    0.4100 A=    0.0000 R=    0.0000 C=    0.0000
 XYZ=   -4.5332    0.5176   -5.7706 Q=   -0.8200 A=    0.0000 R=    0.0000 C=    0.0000
 XYZ=   -4.5358    0.0349   -4.8948 Q=    0.4100 A=    0.0000 R=    0.0000 C=    0.0000
 XYZ=   -3.6477    0.9631   -5.9029 Q=    0.4100 A=    0.0000 R=    0.0000 C=    0.0000
 XYZ=    0.5026    3.2732    6.5897 Q=   -0.8200 A=    0.0000 R=    0.0000 C=    0.0000
 XYZ=    0.8168    3.6638    7.4550 Q=    0.4100 A=    0.0000 R=    0.0000 C=    0.0000
 XYZ=    0.8308    2.3320    6.5103 Q=    0.4100 A=    0.0000 R=    0.0000 C=    0.0000
 XYZ=    5.3227   -0.6304    4.0365 Q=   -0.8200 A=    0.0000 R=    0.0000 C=    0.0000
 XYZ=    5.4260   -1.3095    4.7633 Q=    0.4100 A=    0.0000 R=    0.0000 C=    0.0000
 XYZ=    4.6954    0.0877    4.3382 Q=    0.4100 A=    0.0000 R=    0.0000 C=    0.0000
 XYZ=   -6.0406   -2.7279    1.4756 Q=   -0.8200 A=    0.0000 R=    0.0000 C=    0.0000
 XYZ=   -5.3115   -2.1078    1.7655 Q=    0.4100 A=    0.0000 R=    0.0000 C=    0.0000
 XYZ=   -5.8004   -3.6655    1.7273 Q=    0.4100 A=    0.0000 R=    0.0000 C=    0.0000
 XYZ=    3.2206   -3.8238    5.4445 Q=   -0.8200 A=    0.0000 R=    0.0000 C=    0.0000
 XYZ=    2.7967   -3.4770    4.6078 Q=    0.4100 A=    0.0000 R=    0.0000 C=    0.0000
 XYZ=    3.3231   -3.0762    6.1008 Q=    0.4100 A=    0.0000 R=    0.0000 C=    0.0000
 XYZ=   -6.2360   -0.2148    3.6365 Q=   -0.8200 A=    0.0000 R=    0.0000 C=    0.0000
 XYZ=   -5.4211   -0.5757    3.1828 Q=    0.4100 A=    0.0000 R=    0.0000 C=    0.0000
 XYZ=   -6.5817   -0.8904    4.2877 Q=    0.4100 A=    0.0000 R=    0.0000 C=    0.0000
 XYZ=    0.3930   -8.0210   -0.3416 Q=   -0.8200 A=    0.0000 R=    0.0000 C=    0.0000
 XYZ=    1.1104   -7.3902   -0.6374 Q=    0.4100 A=    0.0000 R=    0.0000 C=    0.0000
 XYZ=    0.1440   -8.6222   -1.1009 Q=    0.4100 A=    0.0000 R=    0.0000 C=    0.0000
 XYZ=    6.2968    2.2604    1.3316 Q=   -0.8200 A=    0.0000 R=    0.0000 C=    0.0000
 XYZ=    5.6354    2.9496    1.6277 Q=    0.4100 A=    0.0000 R=    0.0000 C=    0.0000
 XYZ=    5.8689    1.6542    0.6612 Q=    0.4100 A=    0.0000 R=    0.0000 C=    0.0000
 XYZ=   -2.2575   -6.4748    3.9247 Q=   -0.8200 A=    0.0000 R=    0.0000 C=    0.0000
 XYZ=   -1.3930   -6.2446    3.4777 Q=    0.4100 A=    0.0000 R=    0.0000 C=    0.0000
 XYZ=   -2.1211   -7.2587    4.5304 Q=    0.4100 A=    0.0000 R=    0.0000 C=    0.0000
 XYZ=    5.1391   -5.7728   -0.5066 Q=   -0.8200 A=    0.0000 R=    0.0000 C=    0.0000
 XYZ=    4.3552   -5.6636    0.1047 Q=    0.4100 A=    0.0000 R=    0.0000 C=    0.0000
 XYZ=    4.8851   -6.3642   -1.2719 Q=    0.4100 A=    0.0000 R=    0.0000 C=    0.0000
 XYZ=    0.8461    7.8338   -2.2601 Q=   -0.8200 A=    0.0000 R=    0.0000 C=    0.0000
 XYZ=    0.7383    8.3458   -3.1123 Q=    0.4100 A=    0.0000 R=    0.0000 C=    0.0000
 XYZ=    1.3124    6.9692   -2.4474 Q=    0.4100 A=    0.0000 R=    0.0000 C=    0.0000
 XYZ=    3.1959   -5.7302    2.9527 Q=   -0.8200 A=    0.0000 R=    0.0000 C=    0.0000
 XYZ=    2.7435   -6.2714    3.6615 Q=    0.4100 A=    0.0000 R=    0.0000 C=    0.0000
 XYZ=    3.8492   -5.1037    3.3778 Q=    0.4100 A=    0.0000 R=    0.0000 C=    0.0000
 XYZ=    6.1645    0.9091   -2.1895 Q=   -0.8200 A=    0.0000 R=    0.0000 C=    0.0000
 XYZ=    6.0111    1.7467   -2.7139 Q=    0.4100 A=    0.0000 R=    0.0000 C=    0.0000
 XYZ=    5.9608    0.1152   -2.7624 Q=    0.4100 A=    0.0000 R=    0.0000 C=    0.0000
 XYZ=   -0.8852   -7.5728    1.6549 Q=   -0.8200 A=    0.0000 R=    0.0000 C=    0.0000
 XYZ=   -0.3739   -7.7331    0.8105 Q=    0.4100 A=    0.0000 R=    0.0000 C=    0.0000
 XYZ=   -1.8645   -7.6633    1.4737 Q=    0.4100 A=    0.0000 R=    0.0000 C=    0.0000
 XYZ=    5.5136    2.9201   -3.3198 Q=   -0.8200 A=    0.0000 R=    0.0000 C=    0.0000
 XYZ=    6.4230    3.2629   -3.0843 Q=    0.4100 A=    0.0000 R=    0.0000 C=    0.0000
 XYZ=    5.3222    3.1163   -4.2815 Q=    0.4100 A=    0.0000 R=    0.0000 C=    0.0000
 XYZ=   -2.3216   -4.4218    4.8553 Q=   -0.8200 A=    0.0000 R=    0.0000 C=    0.0000
 XYZ=   -2.8026   -4.4538    5.7314 Q=    0.4100 A=    0.0000 R=    0.0000 C=    0.0000
 XYZ=   -2.2027   -5.3513    4.5062 Q=    0.4100 A=    0.0000 R=    0.0000 C=    0.0000
 XYZ=    5.6130   -3.9567   -4.5669 Q=   -0.8200 A=    0.0000 R=    0.0000 C=    0.0000
 XYZ=    6.5368   -3.8349   -4.2036 Q=    0.4100 A=    0.0000 R=    0.0000 C=    0.0000
 XYZ=    5.2167   -3.0628   -4.7762 Q=    0.4100 A=    0.0000 R=    0.0000 C=    0.0000
 XYZ=   -6.7867    1.5051    0.1916 Q=   -0.8200 A=    0.0000 R=    0.0000 C=    0.0000
 XYZ=   -6.0323    1.9977    0.6256 Q=    0.4100 A=    0.0000 R=    0.0000 C=    0.0000
 XYZ=   -6.5154    1.2242   -0.7290 Q=    0.4100 A=    0.0000 R=    0.0000 C=    0.0000
 XYZ=   -1.7607    3.2825    6.8814 Q=   -0.8200 A=    0.0000 R=    0.0000 C=    0.0000
 XYZ=   -0.7693    3.2327    6.7602 Q=    0.4100 A=    0.0000 R=    0.0000 C=    0.0000
 XYZ=   -2.0998    2.4039    7.2179 Q=    0.4100 A=    0.0000 R=    0.0000 C=    0.0000
 XYZ=    5.1527    6.0737   -0.8264 Q=   -0.8200 A=    0.0000 R=    0.0000 C=    0.0000
 XYZ=    4.2979    6.3768   -0.4050 Q=    0.4100 A=    0.0000 R=    0.0000 C=    0.0000
 XYZ=    5.9264    6.4789   -0.3394 Q=    0.4100 A=    0.0000 R=    0.0000 C=    0.0000
 XYZ=   -5.5478    4.1978   -1.0788 Q=   -0.8200 A=    0.0000 R=    0.0000 C=    0.0000
 XYZ=   -5.4250    5.1879   -1.0102 Q=    0.4100 A=    0.0000 R=    0.0000 C=    0.0000
 XYZ=   -6.2390    3.9950   -1.7725 Q=    0.4100 A=    0.0000 R=    0.0000 C=    0.0000
 XYZ=   -5.0016   -3.1251    5.4444 Q=   -0.8200 A=    0.0000 R=    0.0000 C=    0.0000
 XYZ=   -4.2605   -2.7879    4.8639 Q=    0.4100 A=    0.0000 R=    0.0000 C=    0.0000
 XYZ=   -4.6247   -3.7213    6.1534 Q=    0.4100 A=    0.0000 R=    0.0000 C=    0.0000
 XYZ=    6.0413   -1.0197   -3.7608 Q=   -0.8200 A=    0.0000 R=    0.0000 C=    0.0000
 XYZ=    6.5867   -0.7114   -4.5402 Q=    0.4100 A=    0.0000 R=    0.0000 C=    0.0000
 XYZ=    6.5918   -1.6273   -3.1884 Q=    0.4100 A=    0.0000 R=    0.0000 C=    0.0000
 XYZ=    5.1486   -4.3463    3.9907 Q=   -0.8200 A=    0.0000 R=    0.0000 C=    0.0000
 XYZ=    4.9734   -3.7248    3.2271 Q=    0.4100 A=    0.0000 R=    0.0000 C=    0.0000
 XYZ=    4.4307   -4.2397    4.6787 Q=    0.4100 A=    0.0000 R=    0.0000 C=    0.0000
 XYZ=    0.5833    7.0310    4.5616 Q=   -0.8200 A=    0.0000 R=    0.0000 C=    0.0000
 XYZ=    1.0592    6.2090    4.8745 Q=    0.4100 A=    0.0000 R=    0.0000 C=    0.0000
 XYZ=   -0.3597    7.0171    4.8941 Q=    0.4100 A=    0.0000 R=    0.0000 C=    0.0000
 XYZ=   -4.5177    5.1487    4.5358 Q=   -0.8200 A=    0.0000 R=    0.0000 C=    0.0000
 XYZ=   -5.3952    5.1953    5.0133 Q=    0.4100 A=    0.0000 R=    0.0000 C=    0.0000
 XYZ=   -4.6232    4.6162    3.6960 Q=    0.4100 A=    0.0000 R=    0.0000 C=    0.0000
 XYZ=    4.0034   -2.4370   -8.0000 Q=   -0.8200 A=    0.0000 R=    0.0000 C=    0.0000
 XYZ=    4.0351   -3.3279   -7.5468 Q=    0.4100 A=    0.0000 R=    0.0000 C=    0.0000
 XYZ=    3.4406   -1.8092   -7.4621 Q=    0.4100 A=    0.0000 R=    0.0000 C=    0.0000
 XYZ=   -3.5211    7.5724   -2.4204 Q=   -0.8200 A=    0.0000 R=    0.0000 C=    0.0000
 XYZ=   -3.9524    8.2846   -1.8664 Q=    0.4100 A=    0.0000 R=    0.0000 C=    0.0000
 XYZ=   -2.6083    7.3778   -2.0611 Q=    0.4100 A=    0.0000 R=    0.0000 C=    0.0000
 XYZ=   -5.5592    3.6465    3.1549 Q=   -0.8200 A=    0.0000 R=    0.0000 C=    0.0000
 XYZ=   -6.2983    4.2457    2.8471 Q=    0.4100 A=    0.0000 R=    0.0000 C=    0.0000
 XYZ=   -5.8865    3.0721    3.9052 Q=    0.4100 A=    0.0000 R=    0.0000 C=    0.0000
 XYZ=    0.2674    8.2969    2.6395 Q=   -0.8200 A=    0.0000 R=    0.0000 C=    0.0000
 XYZ=   -0.7085    8.3186    2.4223 Q=    0.4100 A=    0.0000 R=    0.0000 C=    0.0000
 XYZ=    0.4234    7.6799    3.4108 Q=    0.4100 A=    0.0000 R=    0.0000 C=    0.0000
 XYZ=   -6.4523    0.8562   -2.1401 Q=   -0.8200 A=    0.0000 R=    0.0000 C=    0.0000
 XYZ=   -6.6771   -0.1175   -2.1777 Q=    0.4100 A=    0.0000 R=    0.0000 C=    0.0000
 XYZ=   -6.8835    1.3278   -2.9093 Q=    0.4100 A=    0.0000 R=    0.0000 C=    0.0000
 XYZ=    7.3321   -0.8817    0.5847 Q=   -0.8200 A=    0.0000 R=    0.0000 C=    0.0000
 XYZ=    6.4913   -0.3404    0.5908 Q=    0.4100 A=    0.0000 R=    0.0000 C=    0.0000
 XYZ=    7.1130   -1.8397    0.7700 Q=    0.4100 A=    0.0000 R=    0.0000 C=    0.0000
 XYZ=   -6.5325   -3.3118   -0.7003 Q=   -0.8200 A=    0.0000 R=    0.0000 C=    0.0000
 XYZ=   -6.5394   -2.9876    0.2456 Q=    0.4100 A=    0.0000 R=    0.0000 C=    0.0000
 XYZ=   -6.3419   -4.2934   -0.7148 Q=    0.4100 A=    0.0000 R=    0.0000 C=    0.0000
 XYZ=   -3.0628   -8.0496    0.9958 Q=   -0.8200 A=    0.0000 R=    0.0000 C=    0.0000
 XYZ=   -3.2227   -9.0149    0.7891 Q=    0.4100 A=    0.0000 R=    0.0000 C=    0.0000
 XYZ=   -3.4790   -7.4831    0.2846 Q=    0.4100 A=    0.0000 R=    0.0000 C=    0.0000
 XYZ=    6.3668   -3.1444    0.8784 Q=   -0.8200 A=    0.0000 R=    0.0000 C=    0.0000
 XYZ=    6.4798   -3.5034   -0.0481 Q=    0.4100 A=    0.0000 R=    0.0000 C=    0.0000
 XYZ=    6.5323   -3.8746    1.5413 Q=    0.4100 A=    0.0000 R=    0.0000 C=    0.0000
 XYZ=   -5.6916   -4.9862    2.2589 Q=   -0.8200 A=    0.0000 R=    0.0000 C=    0.0000
 XYZ=   -6.1314   -4.8218    3.1419 Q=    0.4100 A=    0.0000 R=    0.0000 C=    0.0000
 XYZ=   -4.9339   -5.6278    2.3784 Q=    0.4100 A=    0.0000 R=    0.0000 C=    0.0000
 XYZ=    4.5707   -4.5493   -6.9905 Q=   -0.8200 A=    0.0000 R=    0.0000 C=    0.0000
 XYZ=    4.6720   -4.2803   -6.0326 Q=    0.4100 A=    0.0000 R=    0.0000 C=    0.0000
 XYZ=    5.4749   -4.6718   -7.3996 Q=    0.4100 A=    0.0000 R=    0.0000 C=    0.0000
 XYZ=    1.4180   -5.1817    6.1519 Q=   -0.8200 A=    0.0000 R=    0.0000 C=    0.0000
 XYZ=    2.2690   -4.7204    5.9010 Q=    0.4100 A=    0.0000 R=    0.0000 C=    0.0000
 XYZ=    0.6490   -4.5556    6.0227 Q=    0.4100 A=    0.0000 R=    0.0000 C=    0.0000
 XYZ=   -1.6773   -3.1929    7.8905 Q=   -0.8200 A=    0.0000 R=    0.0000 C=    0.0000
 XYZ=   -1.0745   -3.2533    7.0949 Q=    0.4100 A=    0.0000 R=    0.0000 C=    0.0000
 XYZ=   -1.2125   -3.5727    8.6904 Q=    0.4100 A=    0.0000 R=    0.0000 C=    0.0000
 XYZ=    5.1072   -6.3389   -4.2099 Q=   -0.8200 A=    0.0000 R=    0.0000 C=    0.0000
 XYZ=    5.2515   -5.3548   -4.3141 Q=    0.4100 A=    0.0000 R=    0.0000 C=    0.0000
 XYZ=    5.3505   -6.8034   -5.0615 Q=    0.4100 A=    0.0000 R=    0.0000 C=    0.0000
 XYZ=    7.1297    0.4458    2.9768 Q=   -0.8200 A=    0.0000 R=    0.0000 C=    0.0000
 XYZ=    6.6031    1.0739    2.4037 Q=    0.4100 A=    0.0000 R=    0.0000 C=    0.0000
 XYZ=    6.5042   -0.1548    3.4748 Q=    0.4100 A=    0.0000 R=    0.0000 C=    0.0000
 XYZ=   -5.9686    2.4889   -5.7790 Q=   -0.8200 A=    0.0000 R=    0.0000 C=    0.0000
 XYZ=   -6.1215    2.7101   -6.7421 Q=    0.4100 A=    0.0000 R=    0.0000 C=    0.0000
 XYZ=   -5.4456    1.6392   -5.7112 Q=    0.4100 A=    0.0000 R=    0.0000 C=    0.0000
 XYZ=    6.8045   -4.2844   -1.2652 Q=   -0.8200 A=    0.0000 R=    0.0000 C=    0.0000
 XYZ=    6.0382   -4.8987   -1.0766 Q=    0.4100 A=    0.0000 R=    0.0000 C=    0.0000
 XYZ=    7.6596   -4.8026   -1.2460 Q=    0.4100 A=    0.0000 R=    0.0000 C=    0.0000
 XYZ=   -1.5443    6.5537    5.0988 Q=   -0.8200 A=    0.0000 R=    0.0000 C=    0.0000
 XYZ=   -2.2829    6.9661    4.5655 Q=    0.4100 A=    0.0000 R=    0.0000 C=    0.0000
 XYZ=   -1.9303    6.0710    5.8850 Q=    0.4100 A=    0.0000 R=    0.0000 C=    0.0000
 XYZ=    6.8644    5.2177    1.9255 Q=   -0.8200 A=    0.0000 R=    0.0000 C=    0.0000
 XYZ=    6.0005    4.8325    2.2501 Q=    0.4100 A=    0.0000 R=    0.0000 C=    0.0000
 XYZ=    7.5695    4.5086    1.9341 Q=    0.4100 A=    0.0000 R=    0.0000 C=    0.0000
 XYZ=   -1.8341    3.5057   -8.7871 Q=   -0.8200 A=    0.0000 R=    0.0000 C=    0.0000
 XYZ=   -1.7154    3.6947   -7.8124 Q=    0.4100 A=    0.0000 R=    0.0000 C=    0.0000
 XYZ=   -2.5797    4.0665   -9.1470 Q=    0.4100 A=    0.0000 R=    0.0000 C=    0.0000
 XYZ=   -4.2046   -6.9221    2.7688 Q=   -0.8200 A=    0.0000 R=    0.0000 C=    0.0000
 XYZ=   -3.5235   -6.6864    3.4621 Q=    0.4100 A=    0.0000 R=    0.0000 C=    0.0000
 XYZ=   -3.7449   -7.2997    1.9649 Q=    0.4100 A=    0.0000 R=    0.0000 C=    0.0000
 XYZ=    2.1073    3.0451   -8.0705 Q=   -0.8200 A=    0.0000 R=    0.0000 C=    0.0000
 XYZ=    2.7494    3.6772   -7.6367 Q=    0.4100 A=    0.0000 R=    0.0000 C=    0.0000
 XYZ=    2.5490    2.1571   -8.1988 Q=    0.4100 A=    0.0000 R=    0.0000 C=    0.0000
 XYZ=   -1.3816    1.0202    8.2597 Q=   -0.8200 A=    0.0000 R=    0.0000 C=    0.0000
 XYZ=   -1.8141    0.1247    8.1546 Q=    0.4100 A=    0.0000 R=    0.0000 C=    0.0000
 XYZ=   -1.0480    1.1212    9.1970 Q=    0.4100 A=    0.0000 R=    0.0000 C=    0.0000
 XYZ=   -7.1727   -1.5060   -2.1121 Q=   -0.8200 A=    0.0000 R=    0.0000 C=    0.0000
 XYZ=   -7.1434   -1.7319   -3.0859 Q=    0.4100 A=    0.0000 R=    0.0000 C=    0.0000
 XYZ=   -6.8946   -2.3034   -1.5765 Q=    0.4100 A=    0.0000 R=    0.0000 C=    0.0000
 XYZ=   -3.4669    4.8755    6.5270 Q=   -0.8200 A=    0.0000 R=    0.0000 C=    0.0000
 XYZ=   -3.7804    5.0159    5.5878 Q=    0.4100 A=    0.0000 R=    0.0000 C=    0.0000
 XYZ=   -2.8032    4.1277    6.5486 Q=    0.4100 A=    0.0000 R=    0.0000 C=    0.0000
 XYZ=    2.2316    1.4554    8.9942 Q=   -0.8200 A=    0.0000 R=    0.0000 C=    0.0000
 XYZ=    3.2226    1.5454    8.8951 Q=    0.4100 A=    0.0000 R=    0.0000 C=    0.0000
 XYZ=    1.8237    1.2619    8.1019 Q=    0.4100 A=    0.0000 R=    0.0000 C=    0.0000
 XYZ=    4.3984   -7.2857   -2.2430 Q=   -0.8200 A=    0.0000 R=    0.0000 C=    0.0000
 XYZ=    5.0379   -8.0211   -2.0187 Q=    0.4100 A=    0.0000 R=    0.0000 C=    0.0000
 XYZ=    4.6594   -6.8715   -3.1149 Q=    0.4100 A=    0.0000 R=    0.0000 C=    0.0000
 XYZ=    3.8200   -1.8682    6.9493 Q=   -0.8200 A=    0.0000 R=    0.0000 C=    0.0000
 XYZ=    4.1852   -1.7212    7.8686 Q=    0.4100 A=    0.0000 R=    0.0000 C=    0.0000
 XYZ=    4.5663   -1.8329    6.2847 Q=    0.4100 A=    0.0000 R=    0.0000 C=    0.0000
 XYZ=   -1.9803    8.5707    2.0257 Q=   -0.8200 A=    0.0000 R=    0.0000 C=    0.0000
 XYZ=   -2.5305    8.0160    2.6498 Q=    0.4100 A=    0.0000 R=    0.0000 C=    0.0000
 XYZ=   -2.5522    9.2850    1.6223 Q=    0.4100 A=    0.0000 R=    0.0000 C=    0.0000
 XYZ=   -6.4952    2.0198    4.6299 Q=   -0.8200 A=    0.0000 R=    0.0000 C=    0.0000
 XYZ=   -6.2056    1.9147    5.5813 Q=    0.4100 A=    0.0000 R=    0.0000 C=    0.0000
 XYZ=   -6.4763    1.1291    4.1755 Q=    0.4100 A=    0.0000 R=    0.0000 C=    0.0000
 XYZ=    1.7419   -6.8633    4.4608 Q=   -0.8200 A=    0.0000 R=    0.0000 C=    0.0000
 XYZ=    1.1427   -7.6550    4.3415 Q=    0.4100 A=    0.0000 R=    0.0000 C=    0.0000
 XYZ=    1.4879   -6.3759    5.2962 Q=    0.4100 A=    0.0000 R=    0.0000 C=    0.0000
 XYZ=   -4.6547   -7.1697   -0.7867 Q=   -0.8200 A=    0.0000 R=    0.0000 C=    0.0000
 XYZ=   -4.8995   -6.8003   -1.6832 Q=    0.4100 A=    0.0000 R=    0.0000 C=    0.0000
 XYZ=   -4.9498   -8.1233   -0.7273 Q=    0.4100 A=    0.0000 R=    0.0000 C=    0.0000
 XYZ=   -2.6228   -1.0422    7.9341 Q=   -0.8200 A=    0.0000 R=    0.0000 C=    0.0000
 XYZ=   -2.2660   -1.9764    7.9350 Q=    0.4100 A=    0.0000 R=    0.0000 C=    0.0000
 XYZ=   -3.6069   -1.0614    7.7575 Q=    0.4100 A=    0.0000 R=    0.0000 C=    0.0000
 XYZ=    8.1102    0.1998   -1.3010 Q=   -0.8200 A=    0.0000 R=    0.0000 C=    0.0000
 XYZ=    7.2357    0.5476   -1.6391 Q=    0.4100 A=    0.0000 R=    0.0000 C=    0.0000
 XYZ=    7.9738   -0.2367   -0.4117 Q=    0.4100 A=    0.0000 R=    0.0000 C=    0.0000
 XYZ=   -5.3166    6.5626   -1.1312 Q=   -0.8200 A=    0.0000 R=    0.0000 C=    0.0000
 XYZ=   -4.6975    6.9994   -1.7838 Q=    0.4100 A=    0.0000 R=    0.0000 C=    0.0000
 XYZ=   -5.9476    7.2452   -0.7623 Q=    0.4100 A=    0.0000 R=    0.0000 C=    0.0000
 XYZ=   -7.8156    0.3983    2.0606 Q=   -0.8200 A=    0.0000 R=    0.0000 C=    0.0000
 XYZ=   -7.2996    0.8997    1.3662 Q=    0.4100 A=    0.0000 R=    0.0000 C=    0.0000
 XYZ=   -7.2034    0.1372    2.8070 Q=    0.4100 A=    0.0000 R=    0.0000 C=    0.0000
 XYZ=   -3.3583    7.5195    3.8934 Q=   -0.8200 A=    0.0000 R=    0.0000 C=    0.0000
 XYZ=   -3.9670    6.7379    4.0292 Q=    0.4100 A=    0.0000 R=    0.0000 C=    0.0000
 XYZ=   -3.8722    8.3681    4.0194 Q=    0.4100 A=    0.0000 R=    0.0000 C=    0.0000
 XYZ=    3.6558    4.4446   -7.2863 Q=   -0.8200 A=    0.0000 R=    0.0000 C=    0.0000
 XYZ=    4.3418    4.3467   -6.5654 Q=    0.4100 A=    0.0000 R=    0.0000 C=    0.0000
 XYZ=    4.1038    4.4092   -8.1797 Q=    0.4100 A=    0.0000 R=    0.0000 C=    0.0000
 XYZ=   -6.4289   -5.8615    0.2657 Q=   -0.8200 A=    0.0000 R=    0.0000 C=    0.0000
 XYZ=   -5.6916   -6.4804   -0.0050 Q=    0.4100 A=    0.0000 R=    0.0000 C=    0.0000
 XYZ=   -6.2715   -5.5445    1.2010 Q=    0.4100 A=    0.0000 R=    0.0000 C=    0.0000
 XYZ=    3.0919    1.0302   -8.5462 Q=   -0.8200 A=    0.0000 R=    0.0000 C=    0.0000
 XYZ=    4.0914    1.0545   -8.5253 Q=    0.4100 A=    0.0000 R=    0.0000 C=    0.0000
 XYZ=    2.7875    0.5425   -9.3644 Q=    0.4100 A=    0.0000 R=    0.0000 C=    0.0000
 XYZ=    7.6594   -2.7384   -2.8610 Q=   -0.8200 A=    0.0000 R=    0.0000 C=    0.0000
 XYZ=    8.4879   -2.2955   -2.5182 Q=    0.4100 A=    0.0000 R=    0.0000 C=    0.0000
 XYZ=    7.2434   -3.2789   -2.1296 Q=    0.4100 A=    0.0000 R=    0.0000 C=    0.0000
 XYZ=   -4.7643    0.4459   -8.3322 Q=   -0.8200 A=    0.0000 R=    0.0000 C=    0.0000
 XYZ=   -4.7917   -0.4767   -8.7168 Q=    0.4100 A=    0.0000 R=    0.0000 C=    0.0000
 XYZ=   -4.8541    0.3951   -7.3375 Q=    0.4100 A=    0.0000 R=    0.0000 C=    0.0000
 XYZ=    1.1488   10.1002   -0.9947 Q=   -0.8200 A=    0.0000 R=    0.0000 C=    0.0000
 XYZ=    2.0280   10.4658   -1.3003 Q=    0.4100 A=    0.0000 R=    0.0000 C=    0.0000
 XYZ=    1.0378    9.1679   -1.3391 Q=    0.4100 A=    0.0000 R=    0.0000 C=    0.0000
 XYZ=    5.5177    3.9449   -5.9152 Q=   -0.8200 A=    0.0000 R=    0.0000 C=    0.0000
 XYZ=    6.1044    4.7537   -5.9551 Q=    0.4100 A=    0.0000 R=    0.0000 C=    0.0000
 XYZ=    5.9780    3.1770   -6.3610 Q=    0.4100 A=    0.0000 R=    0.0000 C=    0.0000
 XYZ=   -0.8575   -9.7864    2.6361 Q=   -0.8200 A=    0.0000 R=    0.0000 C=    0.0000
 XYZ=   -0.4570  -10.4506    2.0049 Q=    0.4100 A=    0.0000 R=    0.0000 C=    0.0000
 XYZ=   -0.8921   -8.8885    2.1972 Q=    0.4100 A=    0.0000 R=    0.0000 C=    0.0000
 XYZ=   -8.2115   -2.0692    1.9735 Q=   -0.8200 A=    0.0000 R=    0.0000 C=    0.0000
 XYZ=   -7.3163   -2.4430    1.7304 Q=    0.4100 A=    0.0000 R=    0.0000 C=    0.0000
 XYZ=   -8.1294   -1.0856    2.1343 Q=    0.4100 A=    0.0000 R=    0.0000 C=    0.0000
 XYZ=    0.3938    3.2531   -9.6326 Q=   -0.8200 A=    0.0000 R=    0.0000 C=    0.0000
 XYZ=   -0.5197    3.3121   -9.2300 Q=    0.4100 A=    0.0000 R=    0.0000 C=    0.0000
 XYZ=    1.0702    3.1256   -8.9072 Q=    0.4100 A=    0.0000 R=    0.0000 C=    0.0000
 XYZ=    5.7058   -2.1275    5.6433 Q=   -0.8200 A=    0.0000 R=    0.0000 C=    0.0000
 XYZ=    6.3822   -1.7628    6.2832 Q=    0.4100 A=    0.0000 R=    0.0000 C=    0.0000
 XYZ=    6.0139   -3.0159    5.3030 Q=    0.4100 A=    0.0000 R=    0.0000 C=    0.0000
 XYZ=    8.2113    3.3870    1.9782 Q=   -0.8200 A=    0.0000 R=    0.0000 C=    0.0000
 XYZ=    8.5394    2.7936    2.7133 Q=    0.4100 A=    0.0000 R=    0.0000 C=    0.0000
 XYZ=    7.4374    2.9514    1.5185 Q=    0.4100 A=    0.0000 R=    0.0000 C=    0.0000
 XYZ=   -3.2786    7.7512   -4.7783 Q=   -0.8200 A=    0.0000 R=    0.0000 C=    0.0000
 XYZ=   -3.5849    7.7441   -3.8263 Q=    0.4100 A=    0.0000 R=    0.0000 C=    0.0000
 XYZ=   -3.0225    6.8244   -5.0529 Q=    0.4100 A=    0.0000 R=    0.0000 C=    0.0000
 XYZ=    5.2903    0.9254    6.7468 Q=   -0.8200 A=    0.0000 R=    0.0000 C=    0.0000
 XYZ=    6.1427    1.3967    6.5202 Q=    0.4100 A=    0.0000 R=    0.0000 C=    0.0000
 XYZ=    4.9067    1.3147    7.5843 Q=    0.4100 A=    0.0000 R=    0.0000 C=    0.0000
 XYZ=   -7.2960    1.8436   -4.1017 Q=   -0.8200 A=    0.0000 R=    0.0000 C=    0.0000
 XYZ=   -6.7486    2.2640   -4.8253 Q=    0.4100 A=    0.0000 R=    0.0000 C=    0.0000
 XYZ=   -8.1660    1.5294   -4.4818 Q=    0.4100 A=    0.0000 R=    0.0000 C=    0.0000
 XYZ=   -6.8231   -1.7329    5.2736 Q=   -0.8200 A=    0.0000 R=    0.0000 C=    0.0000
 XYZ=   -7.4974   -2.3249    4.8321 Q=    0.4100 A=    0.0000 R=    0.0000 C=    0.0000
 XYZ=   -6.0203   -2.2730    5.5265 Q=    0.4100 A=    0.0000 R=    0.0000 C=    0.0000
 XYZ=   -2.7668    1.2495   -9.1229 Q=   -0.8200 A=    0.0000 R=    0.0000 C=    0.0000
 XYZ=   -3.6189    0.8793   -8.7528 Q=    0.4100 A=    0.0000 R=    0.0000 C=    0.0000
 XYZ=   -2.6643    2.2017   -8.8349 Q=    0.4100 A=    0.0000 R=    0.0000 C=    0.0000
 XYZ=   -3.5055   -4.4320    6.9310 Q=   -0.8200 A=    0.0000 R=    0.0000 C=    0.0000
 XYZ=   -2.8454   -3.8080    7.3494 Q=    0.4100 A=    0.0000 R=    0.0000 C=    0.0000
 XYZ=   -3.5246   -5.2901    7.4442 Q=    0.4100 A=    0.0000 R=    0.0000 C=    0.0000
 XYZ=   -7.1176    4.0610   -2.9829 Q=   -0.8200 A=    0.0000 R=    0.0000 C=    0.0000
 XYZ=   -6.4885    4.2273   -3.7423 Q=    0.4100 A=    0.0000 R=    0.0000 C=    0.0000
 XYZ=   -7.6193    3.2115   -3.1457 Q=    0.4100 A=    0.0000 R=    0.0000 C=    0.0000
 XYZ=    6.8202   -4.9658    2.2719 Q=   -0.8200 A=    0.0000 R=    0.0000 C=    0.0000
 XYZ=    6.2884   -4.8107    3.1045 Q=    0.4100 A=    0.0000 R=    0.0000 C=    0.0000
 XYZ=    6.6051   -5.8698    1.9026 Q=    0.4100 A=    0.0000 R=    0.0000 C=    0.0000
 XYZ=    0.9943   10.3287    1.5469 Q=   -0.8200 A=    0.0000 R=    0.0000 C=    0.0000
 XYZ=    0.7148    9.4740    1.9845 Q=    0.4100 A=    0.0000 R=    0.0000 C=    0.0000
 XYZ=    1.0668   10.1892    0.5593 Q=    0.4100 A=    0.0000 R=    0.0000 C=    0.0000
 XYZ=   -6.4963   -4.4227    4.3149 Q=   -0.8200 A=    0.0000 R=    0.0000 C=    0.0000
 XYZ=   -7.3538   -3.9275    4.1757 Q=    0.4100 A=    0.0000 R=    0.0000 C=    0.0000
 XYZ=   -5.8332   -3.8221    4.7616 Q=    0.4100 A=    0.0000 R=    0.0000 C=    0.0000
 XYZ=    5.6451    3.7524    5.6936 Q=   -0.8200 A=    0.0000 R=    0.0000 C=    0.0000
 XYZ=    6.2959    4.4876    5.8830 Q=    0.4100 A=    0.0000 R=    0.0000 C=    0.0000
 XYZ=    6.1430    2.9275    5.4258 Q=    0.4100 A=    0.0000 R=    0.0000 C=    0.0000
 XYZ=    6.4407   -7.0571    1.2213 Q=   -0.8200 A=    0.0000 R=    0.0000 C=    0.0000
 XYZ=    6.0999   -6.6394    0.3790 Q=    0.4100 A=    0.0000 R=    0.0000 C=    0.0000
 XYZ=    5.8433   -7.8154    1.4827 Q=    0.4100 A=    0.0000 R=    0.0000 C=    0.0000
 XYZ=    0.1739   -8.4196    4.2428 Q=   -0.8200 A=    0.0000 R=    0.0000 C=    0.0000
 XYZ=   -0.5915   -8.1699    4.8360 Q=    0.4100 A=    0.0000 R=    0.0000 C=    0.0000
 XYZ=   -0.1666   -8.9440    3.4623 Q=    0.4100 A=    0.0000 R=    0.0000 C=    0.0000
 XYZ=    6.1227   -1.3590   -8.0243 Q=   -0.8200 A=    0.0000 R=    0.0000 C=    0.0000
 XYZ=    6.4604   -1.0642   -7.1303 Q=    0.4100 A=    0.0000 R=    0.0000 C=    0.0000
 XYZ=    5.2591   -1.8498   -7.9091 Q=    0.4100 A=    0.0000 R=    0.0000 C=    0.0000
 XYZ=   -2.3410    4.4000    9.0067 Q=   -0.8200 A=    0.0000 R=    0.0000 C=    0.0000
 XYZ=   -2.7533    5.2993    8.8606 Q=    0.4100 A=    0.0000 R=    0.0000 C=    0.0000
 XYZ=   -1.9752    4.0565    8.1417 Q=    0.4100 A=    0.0000 R=    0.0000 C=    0.0000
 XYZ=    1.3134    3.6135    8.8776 Q=   -0.8200 A=    0.0000 R=    0.0000 C=    0.0000
 XYZ=    0.5477    3.7767    9.4999 Q=    0.4100 A=    0.0000 R=    0.0000 C=    0.0000
 XYZ=    1.6561    2.6831    9.0077 Q=    0.4100 A=    0.0000 R=    0.0000 C=    0.0000
 XYZ=    0.7522    9.0157    6.0085 Q=   -0.8200 A=    0.0000 R=    0.0000 C=    0.0000
 XYZ=    0.7004    8.1430    5.5229 Q=    0.4100 A=    0.0000 R=    0.0000 C=    0.0000
 XYZ=    0.5710    9.7637    5.3699 Q=    0.4100 A=    0.0000 R=    0.0000 C=    0.0000
 XYZ=   -0.7660   -7.6037   -8.7806 Q=   -0.8200 A=    0.0000 R=    0.0000 C=    0.0000
 XYZ=   -0.6947   -6.6693   -8.4314 Q=    0.4100 A=    0.0000 R=    0.0000 C=    0.0000
 XYZ=   -1.3827   -8.1315   -8.1965 Q=    0.4100 A=    0.0000 R=    0.0000 C=    0.0000
 XYZ=   -8.6666    3.4559    0.8350 Q=   -0.8200 A=    0.0000 R=    0.0000 C=    0.0000
 XYZ=   -8.0844    2.6460    0.7638 Q=    0.4100 A=    0.0000 R=    0.0000 C=    0.0000
 XYZ=   -9.5722    3.1876    1.1634 Q=    0.4100 A=    0.0000 R=    0.0000 C=    0.0000
 XYZ=    7.6045    5.9750   -2.0701 Q=   -0.8200 A=    0.0000 R=    0.0000 C=    0.0000
 XYZ=    6.6270    6.1188   -2.2244 Q=    0.4100 A=    0.0000 R=    0.0000 C=    0.0000
 XYZ=    7.8417    6.2645   -1.1428 Q=    0.4100 A=    0.0000 R=    0.0000 C=    0.0000
 XYZ=    0.6129    8.7245   -4.2433 Q=   -0.8200 A=    0.0000 R=    0.0000 C=    0.0000
 XYZ=   -0.3403    9.0021   -4.3628 Q=    0.4100 A=    0.0000 R=    0.0000 C=    0.0000
 XYZ=    1.0586    8.6701   -5.1369 Q=    0.4100 A=    0.0000 R=    0.0000 C=    0.0000
 XYZ=    7.6979    3.8133   -2.7972 Q=   -0.8200 A=    0.0000 R=    0.0000 C=    0.0000
 XYZ=    8.3125    3.2360   -2.2596 Q=    0.4100 A=    0.0000 R=    0.0000 C=    0.0000
 XYZ=    7.7548    4.7564   -2.4695 Q=    0.4100 A=    0.0000 R=    0.0000 C=    0.0000
 XYZ=    7.3431   -6.8047   -3.2212 Q=   -0.8200 A=    0.0000 R=    0.0000 C=    0.0000
 XYZ=    6.4077   -6.7516   -3.5709 Q=    0.4100 A=    0.0000 R=    0.0000 C=    0.0000
 XYZ=    7.9848   -6.8274   -3.9878 Q=    0.4100 A=    0.0000 R=    0.0000 C=    0.0000
 XYZ=   -6.1566    1.8557    6.9529 Q=   -0.8200 A=    0.0000 R=    0.0000 C=    0.0000
 XYZ=   -6.3920    1.5082    7.8606 Q=    0.4100 A=    0.0000 R=    0.0000 C=    0.0000
 XYZ=   -5.6508    2.7134    7.0453 Q=    0.4100 A=    0.0000 R=    0.0000 C=    0.0000
 XYZ=    4.7039    4.0393    7.9882 Q=   -0.8200 A=    0.0000 R=    0.0000 C=    0.0000
 XYZ=    5.3768    4.7119    8.2963 Q=    0.4100 A=    0.0000 R=    0.0000 C=    0.0000
 XYZ=    4.9600    3.7025    7.0821 Q=    0.4100 A=    0.0000 R=    0.0000 C=    0.0000
 XYZ=    0.3134   -5.6708    8.1677 Q=   -0.8200 A=    0.0000 R=    0.0000 C=    0.0000
 XYZ=    0.8060   -5.5536    7.3053 Q=    0.4100 A=    0.0000 R=    0.0000 C=    0.0000
 XYZ=    0.8596   -6.2316    8.7899 Q=    0.4100 A=    0.0000 R=    0.0000 C=    0.0000
 XYZ=   -7.4475    4.7959    2.4264 Q=   -0.8200 A=    0.0000 R=    0.0000 C=    0.0000
 XYZ=   -7.8719    4.5158    3.2875 Q=    0.4100 A=    0.0000 R=    0.0000 C=    0.0000
 XYZ=   -7.9020    4.3335    1.6650 Q=    0.4100 A=    0.0000 R=    0.0000 C=    0.0000
 XYZ=    3.9793   -6.3269   -8.7079 Q=   -0.8200 A=    0.0000 R=    0.0000 C=    0.0000
 XYZ=    4.7643   -6.4578   -9.3135 Q=    0.4100 A=    0.0000 R=    0.0000 C=    0.0000
 XYZ=    4.1847   -5.6046   -8.0475 Q=    0.4100 A=    0.0000 R=    0.0000 C=    0.0000
 XYZ=    7.6541    6.5663    0.1222 Q=   -0.8200 A=    0.0000 R=    0.0000 C=    0.0000
 XYZ=    7.8080    7.5240    0.3651 Q=    0.4100 A=    0.0000 R=    0.0000 C=    0.0000
 XYZ=    7.2909    6.0758    0.9145 Q=    0.4100 A=    0.0000 R=    0.0000 C=    0.0000
 XYZ=   -1.5782   -2.5314  -10.8008 Q=   -0.8200 A=    0.0000 R=    0.0000 C=    0.0000
 XYZ=   -1.4216   -3.5186  -10.8315 Q=    0.4100 A=    0.0000 R=    0.0000 C=    0.0000
 XYZ=   -2.1732   -2.3123  -10.0275 Q=    0.4100 A=    0.0000 R=    0.0000 C=    0.0000
 XYZ=    7.5198   -0.6257   -5.6313 Q=   -0.8200 A=    0.0000 R=    0.0000 C=    0.0000
 XYZ=    7.8989    0.2913   -5.5061 Q=    0.4100 A=    0.0000 R=    0.0000 C=    0.0000
 XYZ=    8.2609   -1.2970   -5.6205 Q=    0.4100 A=    0.0000 R=    0.0000 C=    0.0000
 XYZ=    5.2817    0.8118   -8.5187 Q=   -0.8200 A=    0.0000 R=    0.0000 C=    0.0000
 XYZ=    6.0675    1.3674   -8.2468 Q=    0.4100 A=    0.0000 R=    0.0000 C=    0.0000
 XYZ=    5.5286   -0.1565   -8.4791 Q=    0.4100 A=    0.0000 R=    0.0000 C=    0.0000
 XYZ=   -5.1936    3.8824    7.7970 Q=   -0.8200 A=    0.0000 R=    0.0000 C=    0.0000
 XYZ=   -6.0063    4.4646    7.7730 Q=    0.4100 A=    0.0000 R=    0.0000 C=    0.0000
 XYZ=   -4.4207    4.3721    7.3934 Q=    0.4100 A=    0.0000 R=    0.0000 C=    0.0000
 XYZ=    8.8412    1.6699    4.0524 Q=   -0.8200 A=    0.0000 R=    0.0000 C=    0.0000
 XYZ=    8.1433    1.1857    3.5247 Q=    0.4100 A=    0.0000 R=    0.0000 C=    0.0000
 XYZ=    9.6569    1.0966    4.1311 Q=    0.4100 A=    0.0000 R=    0.0000 C=    0.0000
 XYZ=    6.8052   -0.8499    7.3335 Q=   -0.8200 A=    0.0000 R=    0.0000 C=    0.0000
 XYZ=    6.2494   -0.0294    7.1995 Q=    0.4100 A=    0.0000 R=    0.0000 C=    0.0000
 XYZ=    7.7451   -0.5844    7.5482 Q=    0.4100 A=    0.0000 R=    0.0000 C=    0.0000
 XYZ=   -5.7882   -7.6551   -4.2627 Q=   -0.8200 A=    0.0000 R=    0.0000 C=    0.0000
 XYZ=   -6.6955   -7.6018   -3.8454 Q=    0.4100 A=    0.0000 R=    0.0000 C=    0.0000
 XYZ=   -5.7902   -7.1561   -5.1293 Q=    0.4100 A=    0.0000 R=    0.0000 C=    0.0000
 XYZ=   -5.6019   -7.8986    4.4857 Q=   -0.8200 A=    0.0000 R=    0.0000 C=    0.0000
 XYZ=   -5.1110   -7.6036    3.6660 Q=    0.4100 A=    0.0000 R=    0.0000 C=    0.0000
 XYZ=   -6.4147   -7.3296    4.6103 Q=    0.4100 A=    0.0000 R=    0.0000 C=    0.0000
 XYZ=   -5.8154   -6.6178   -6.3653 Q=   -0.8200 A=    0.0000 R=    0.0000 C=    0.0000
 XYZ=   -5.7561   -5.7484   -6.8559 Q=    0.4100 A=    0.0000 R=    0.0000 C=    0.0000
 XYZ=   -6.6723   -7.0761   -6.6016 Q=    0.4100 A=    0.0000 R=    0.0000 C=    0.0000
 XYZ=    4.3246   -3.3614  -10.2589 Q=   -0.8200 A=    0.0000 R=    0.0000 C=    0.0000
 XYZ=    4.2341   -3.1050   -9.2966 Q=    0.4100 A=    0.0000 R=    0.0000 C=    0.0000
 XYZ=    5.2423   -3.7234  -10.4225 Q=    0.4100 A=    0.0000 R=    0.0000 C=    0.0000
 XYZ=    2.7126   -8.0943   -7.7570 Q=   -0.8200 A=    0.0000 R=    0.0000 C=    0.0000
 XYZ=    3.0804   -7.1957   -7.9960 Q=    0.4100 A=    0.0000 R=    0.0000 C=    0.0000
 XYZ=    2.8284   -8.2518   -6.7763 Q=    0.4100 A=    0.0000 R=    0.0000 C=    0.0000
 XYZ=   -9.5818   -0.9407   -1.4370 Q=   -0.8200 A=    0.0000 R=    0.0000 C=    0.0000
 XYZ=   -9.7191    0.0467   -1.5168 Q=    0.4100 A=    0.0000 R=    0.0000 C=    0.0000
 XYZ=   -8.6032   -1.1446   -1.4667 Q=    0.4100 A=    0.0000 R=    0.0000 C=    0.0000
 XYZ=    9.0427    2.4031   -1.5098 Q=   -0.8200 A=    0.0000 R=    0.0000 C=    0.0000
 XYZ=    8.7187    1.4618   -1.4151 Q=    0.4100 A=    0.0000 R=    0.0000 C=    0.0000
 XYZ=    9.5635    2.6598   -0.6956 Q=    0.4100 A=    0.0000 R=    0.0000 C=    0.0000
 XYZ=   -4.6631    9.1448   -0.9991 Q=   -0.8200 A=    0.0000 R=    0.0000 C=    0.0000
 XYZ=   -5.1232    9.8505   -1.5380 Q=    0.4100 A=    0.0000 R=    0.0000 C=    0.0000
 XYZ=   -5.3398    8.6422   -0.4611 Q=    0.4100 A=    0.0000 R=    0.0000 C=    0.0000
 XYZ=   -7.0923    7.2421    2.1091 Q=   -0.8200 A=    0.0000 R=    0.0000 C=    0.0000
 XYZ=   -7.2205    6.2510    2.1445 Q=    0.4100 A=    0.0000 R=    0.0000 C=    0.0000
 XYZ=   -7.0987    7.6124    3.0380 Q=    0.4100 A=    0.0000 R=    0.0000 C=    0.0000
 XYZ=   -8.0353    4.0162    4.5200 Q=   -0.8200 A=    0.0000 R=    0.0000 C=    0.0000
 XYZ=   -7.5803    3.1350    4.6479 Q=    0.4100 A=    0.0000 R=    0.0000 C=    0.0000
 XYZ=   -7.5024    4.7345    4.9674 Q=    0.4100 A=    0.0000 R=    0.0000 C=    0.0000
 XYZ=   -3.5297   10.1005    0.8844 Q=   -0.8200 A=    0.0000 R=    0.0000 C=    0.0000
 XYZ=   -4.3176   10.1054    1.5002 Q=    0.4100 A=    0.0000 R=    0.0000 C=    0.0000
 XYZ=   -3.7941    9.6978    0.0081 Q=    0.4100 A=    0.0000 R=    0.0000 C=    0.0000
 XYZ=    7.2464    1.8637    5.8887 Q=   -0.8200 A=    0.0000 R=    0.0000 C=    0.0000
 XYZ=    7.7944    1.6639    5.0764 Q=    0.4100 A=    0.0000 R=    0.0000 C=    0.0000
 XYZ=    7.8522    2.0295    6.6669 Q=    0.4100 A=    0.0000 R=    0.0000 C=    0.0000
 XYZ=   -6.1945    2.4885   -8.1269 Q=   -0.8200 A=    0.0000 R=    0.0000 C=    0.0000
 XYZ=   -6.0684    3.1186   -8.8931 Q=    0.4100 A=    0.0000 R=    0.0000 C=    0.0000
 XYZ=   -5.6742    1.6512   -8.2950 Q=    0.4100 A=    0.0000 R=    0.0000 C=    0.0000
 XYZ=    4.5055    1.8533    8.7180 Q=   -0.8200 A=    0.0000 R=    0.0000 C=    0.0000
 XYZ=    5.1587    1.7226    9.4638 Q=    0.4100 A=    0.0000 R=    0.0000 C=    0.0000
 XYZ=    4.5431    2.8021    8.4045 Q=    0.4100 A=    0.0000 R=    0.0000 C=    0.0000
 XYZ=    6.7444    2.3708   -7.2786 Q=   -0.8200 A=    0.0000 R=    0.0000 C=    0.0000
 XYZ=    7.1093    3.2337   -7.6281 Q=    0.4100 A=    0.0000 R=    0.0000 C=    0.0000
 XYZ=    7.4181    1.9442   -6.6750 Q=    0.4100 A=    0.0000 R=    0.0000 C=    0.0000
 XYZ=    9.0827   -2.3983   -5.0486 Q=   -0.8200 A=    0.0000 R=    0.0000 C=    0.0000
 XYZ=    9.9367   -2.0767   -4.6394 Q=    0.4100 A=    0.0000 R=    0.0000 C=    0.0000
 XYZ=    8.3902   -2.5037   -4.3350 Q=    0.4100 A=    0.0000 R=    0.0000 C=    0.0000
 XYZ=   -7.7107    0.0162    6.8092 Q=   -0.8200 A=    0.0000 R=    0.0000 C=    0.0000
 XYZ=   -7.5629   -0.8011    6.2523 Q=    0.4100 A=    0.0000 R=    0.0000 C=    0.0000
 XYZ=   -7.2981    0.8069    6.3568 Q=    0.4100 A=    0.0000 R=    0.0000 C=    0.0000
 XYZ=   -2.1339   -7.9046    5.8545 Q=   -0.8200 A=    0.0000 R=    0.0000 C=    0.0000
 XYZ=   -1.8461   -7.8222    6.8086 Q=    0.4100 A=    0.0000 R=    0.0000 C=    0.0000
 XYZ=   -3.0241   -8.3583    5.8129 Q=    0.4100 A=    0.0000 R=    0.0000 C=    0.0000
 XYZ=    8.5532    4.0309   -4.9368 Q=   -0.8200 A=    0.0000 R=    0.0000 C=    0.0000
 XYZ=    8.0196    3.8265   -4.1161 Q=    0.4100 A=    0.0000 R=    0.0000 C=    0.0000
 XYZ=    9.5272    4.0290   -4.7100 Q=    0.4100 A=    0.0000 R=    0.0000 C=    0.0000
 XYZ=    8.2536    5.7546    3.8478 Q=   -0.8200 A=    0.0000 R=    0.0000 C=    0.0000
 XYZ=    8.8973    4.9944    3.9360 Q=    0.4100 A=    0.0000 R=    0.0000 C=    0.0000
 XYZ=    7.6053    5.5587    3.1119 Q=    0.4100 A=    0.0000 R=    0.0000 C=    0.0000
 XYZ=    9.6266   -1.0152    1.6044 Q=   -0.8200 A=    0.0000 R=    0.0000 C=    0.0000
 XYZ=    9.6028   -0.7937    2.5793 Q=    0.4100 A=    0.0000 R=    0.0000 C=    0.0000
 XYZ=    8.6921   -1.0768    1.2538 Q=    0.4100 A=    0.0000 R=    0.0000 C=    0.0000
 XYZ=   -8.9835    3.4505   -1.6487 Q=   -0.8200 A=    0.0000 R=    0.0000 C=    0.0000
 XYZ=   -8.2743    4.0701   -1.9852 Q=    0.4100 A=    0.0000 R=    0.0000 C=    0.0000
 XYZ=   -9.0093    3.4848   -0.6496 Q=    0.4100 A=    0.0000 R=    0.0000 C=    0.0000
 XYZ=   -1.6858    9.4031   -4.7752 Q=   -0.8200 A=    0.0000 R=    0.0000 C=    0.0000
 XYZ=   -1.9473   10.2755   -5.1881 Q=    0.4100 A=    0.0000 R=    0.0000 C=    0.0000
 XYZ=   -2.4659    8.7777   -4.7954 Q=    0.4100 A=    0.0000 R=    0.0000 C=    0.0000
 XYZ=   -8.2591   -7.1971    0.9850 Q=   -0.8200 A=    0.0000 R=    0.0000 C=    0.0000
 XYZ=   -8.9973   -7.2349    0.3114 Q=    0.4100 A=    0.0000 R=    0.0000 C=    0.0000
 XYZ=   -7.5065   -6.6463    0.6241 Q=    0.4100 A=    0.0000 R=    0.0000 C=    0.0000
 XYZ=    0.8763   -5.4778  -10.1923 Q=   -0.8200 A=    0.0000 R=    0.0000 C=    0.0000
 XYZ=    1.2228   -4.5505  -10.3343 Q=    0.4100 A=    0.0000 R=    0.0000 C=    0.0000
 XYZ=    1.6072   -6.1373  -10.3683 Q=    0.4100 A=    0.0000 R=    0.0000 C=    0.0000
 XYZ=    9.4958   -1.4652   -2.1081 Q=   -0.8200 A=    0.0000 R=    0.0000 C=    0.0000
 XYZ=    8.9106   -0.7120   -1.8076 Q=    0.4100 A=    0.0000 R=    0.0000 C=    0.0000
 XYZ=   10.0528   -1.7813   -1.3401 Q=    0.4100 A=    0.0000 R=    0.0000 C=    0.0000
 XYZ=    2.1049   -0.1327  -10.6020 Q=   -0.8200 A=    0.0000 R=    0.0000 C=    0.0000
 XYZ=    1.7001    0.6539  -11.0682 Q=    0.4100 A=    0.0000 R=    0.0000 C=    0.0000
 XYZ=    1.5212   -0.9342  -10.7325 Q=    0.4100 A=    0.0000 R=    0.0000 C=    0.0000
 XYZ=   -8.4569   -3.2114    3.9984 Q=   -0.8200 A=    0.0000 R=    0.0000 C=    0.0000
 XYZ=   -8.3879   -2.7758    3.1009 Q=    0.4100 A=    0.0000 R=    0.0000 C=    0.0000
 XYZ=   -9.1556   -3.9262    3.9691 Q=    0.4100 A=    0.0000 R=    0.0000 C=    0.0000
 XYZ=    9.1439   -5.0312    0.7879 Q=   -0.8200 A=    0.0000 R=    0.0000 C=    0.0000
 XYZ=    8.3308   -4.7003    1.2668 Q=    0.4100 A=    0.0000 R=    0.0000 C=    0.0000
 XYZ=    8.9527   -5.0902   -0.1919 Q=    0.4100 A=    0.0000 R=    0.0000 C=    0.0000
 XYZ=   -5.1022   -1.6719   -9.3498 Q=   -0.8200 A=    0.0000 R=    0.0000 C=    0.0000
 XYZ=   -5.9513   -2.1550   -9.1358 Q=    0.4100 A=    0.0000 R=    0.0000 C=    0.0000
 XYZ=   -4.9657   -1.6608  -10.3404 Q=    0.4100 A=    0.0000 R=    0.0000 C=    0.0000
 XYZ=    0.5261   -1.7344  -11.0700 Q=   -0.8200 A=    0.0000 R=    0.0000 C=    0.0000
 XYZ=    1.1574   -2.5100  -11.0749 Q=    0.4100 A=    0.0000 R=    0.0000 C=    0.0000
 XYZ=   -0.4103   -2.0676  -10.9589 Q=    0.4100 A=    0.0000 R=    0.0000 C=    0.0000
 XYZ=    1.2828    1.9065  -11.5336 Q=   -0.8200 A=    0.0000 R=    0.0000 C=    0.0000
 XYZ=    0.7848    2.2018  -10.7182 Q=    0.4100 A=    0.0000 R=    0.0000 C=    0.0000
 XYZ=    2.1501    2.4009  -11.5917 Q=    0.4100 A=    0.0000 R=    0.0000 C=    0.0000
 XYZ=   -0.6592   11.6504   -1.6223 Q=   -0.8200 A=    0.0000 R=    0.0000 C=    0.0000
 XYZ=   -0.2098   10.7831   -1.4083 Q=    0.4100 A=    0.0000 R=    0.0000 C=    0.0000
 XYZ=   -1.3569   11.8434   -0.9324 Q=    0.4100 A=    0.0000 R=    0.0000 C=    0.0000
 XYZ=   -2.6161    1.4290  -11.4135 Q=   -0.8200 A=    0.0000 R=    0.0000 C=    0.0000
 XYZ=   -2.6252    1.4742  -10.4146 Q=    0.4100 A=    0.0000 R=    0.0000 C=    0.0000
 XYZ=   -2.4993    0.4789  -11.7030 Q=    0.4100 A=    0.0000 R=    0.0000 C=    0.0000
 XYZ=   -5.7677   -4.7773   -8.1918 Q=   -0.8200 A=    0.0000 R=    0.0000 C=    0.0000
 XYZ=   -5.3434   -5.1822   -9.0019 Q=    0.4100 A=    0.0000 R=    0.0000 C=    0.0000
 XYZ=   -6.4448   -4.0979   -8.4746 Q=    0.4100 A=    0.0000 R=    0.0000 C=    0.0000
 XYZ=   -6.4170    8.2884    0.1697 Q=   -0.8200 A=    0.0000 R=    0.0000 C=    0.0000
 XYZ=   -7.1156    8.8143   -0.3156 Q=    0.4100 A=    0.0000 R=    0.0000 C=    0.0000
 XYZ=   -6.8435    7.7765    0.9156 Q=    0.4100 A=    0.0000 R=    0.0000 C=    0.0000
 XYZ=  -10.1023    0.6637    1.8703 Q=   -0.8200 A=    0.0000 R=    0.0000 C=    0.0000
 XYZ=   -9.1227    0.7207    2.0630 Q=    0.4100 A=    0.0000 R=    0.0000 C=    0.0000
 XYZ=  -10.2568    0.0271    1.1147 Q=    0.4100 A=    0.0000 R=    0.0000 C=    0.0000
 XYZ=   -4.5040   -8.5819   -6.7030 Q=   -0.8200 A=    0.0000 R=    0.0000 C=    0.0000
 XYZ=   -5.0135   -7.7247   -6.6282 Q=    0.4100 A=    0.0000 R=    0.0000 C=    0.0000
 XYZ=   -4.6061   -9.1052   -5.8570 Q=    0.4100 A=    0.0000 R=    0.0000 C=    0.0000
 XYZ=   -3.4112  -10.2887    0.3638 Q=   -0.8200 A=    0.0000 R=    0.0000 C=    0.0000
 XYZ=   -4.3177  -10.1667   -0.0406 Q=    0.4100 A=    0.0000 R=    0.0000 C=    0.0000
 XYZ=   -2.8379  -10.8224   -0.2580 Q=    0.4100 A=    0.0000 R=    0.0000 C=    0.0000
 XYZ=    8.3630    1.6669   -5.6743 Q=   -0.8200 A=    0.0000 R=    0.0000 C=    0.0000
 XYZ=    8.3078    2.6270   -5.3999 Q=    0.4100 A=    0.0000 R=    0.0000 C=    0.0000
 XYZ=    9.3013    1.3408   -5.5592 Q=    0.4100 A=    0.0000 R=    0.0000 C=    0.0000
 XYZ=    6.5996   -8.3631   -1.8084 Q=   -0.8200 A=    0.0000 R=    0.0000 C=    0.0000
 XYZ=    7.2944   -8.9827   -1.4433 Q=    0.4100 A=    0.0000 R=    0.0000 C=    0.0000
 XYZ=    7.0422   -7.6462   -2.3471 Q=    0.4100 A=    0.0000 R=    0.0000 C=    0.0000
 XYZ=    1.5908    0.8412   11.3654 Q=   -0.8200 A=    0.0000 R=    0.0000 C=    0.0000
 XYZ=    1.8410    0.9767   10.4067 Q=    0.4100 A=    0.0000 R=    0.0000 C=    0.0000
 XYZ=    1.9067   -0.0579   11.6684 Q=    0.4100 A=    0.0000 R=    0.0000 C=    0.0000
 XYZ=   -3.4784    6.5061    8.4879 Q=   -0.8200 A=    0.0000 R=    0.0000 C=    0.0000
 XYZ=   -3.7006    5.9592    7.6807 Q=    0.4100 A=    0.0000 R=    0.0000 C=    0.0000
 XYZ=   -4.3175    6.7150    8.9902 Q=    0.4100 A=    0.0000 R=    0.0000 C=    0.0000
 XYZ=   -6.6835    5.6714    5.3669 Q=   -0.8200 A=    0.0000 R=    0.0000 C=    0.0000
 XYZ=   -6.5637    6.5542    4.9126 Q=    0.4100 A=    0.0000 R=    0.0000 C=    0.0000
 XYZ=   -6.7095    5.8072    6.3574 Q=    0.4100 A=    0.0000 R=    0.0000 C=    0.0000
 XYZ=    8.6953   -5.6561   -1.3806 Q=   -0.8200 A=    0.0000 R=    0.0000 C=    0.0000
 XYZ=    9.6479   -5.7747   -1.6609 Q=    0.4100 A=    0.0000 R=    0.0000 C=    0.0000
 XYZ=    8.1029   -6.2007   -1.9744 Q=    0.4100 A=    0.0000 R=    0.0000 C=    0.0000
 XYZ=   -0.6006   -4.1820    9.7033 Q=   -0.8200 A=    0.0000 R=    0.0000 C=    0.0000
 XYZ=   -0.1179   -4.8496    9.1363 Q=    0.4100 A=    0.0000 R=    0.0000 C=    0.0000
 XYZ=   -1.4832   -4.5592    9.9838 Q=    0.4100 A=    0.0000 R=    0.0000 C=    0.0000
 XYZ=   -0.6338    1.4016   10.6161 Q=   -0.8200 A=    0.0000 R=    0.0000 C=    0.0000
 XYZ=    0.2588    1.0747   10.9269 Q=    0.4100 A=    0.0000 R=    0.0000 C=    0.0000
 XYZ=   -0.6282    2.4009   10.5791 Q=    0.4100 A=    0.0000 R=    0.0000 C=    0.0000
 XYZ=    2.0923   -3.5425  -10.9685 Q=   -0.8200 A=    0.0000 R=    0.0000 C=    0.0000
 XYZ=    2.9978   -3.5873  -10.5465 Q=    0.4100 A=    0.0000 R=    0.0000 C=    0.0000
 XYZ=    2.1882   -3.5434  -11.9640 Q=    0.4100 A=    0.0000 R=    0.0000 C=    0.0000
 XYZ=   -1.1427   -4.9240  -10.9671 Q=   -0.8200 A=    0.0000 R=    0.0000 C=    0.0000
 XYZ=   -0.2858   -5.2319  -10.5535 Q=    0.4100 A=    0.0000 R=    0.0000 C=    0.0000
 XYZ=   -1.0459   -4.9089  -11.9623 Q=    0.4100 A=    0.0000 R=    0.0000 C=    0.0000
 XYZ=   -0.8951   11.7225    2.1267 Q=   -0.8200 A=    0.0000 R=    0.0000 C=    0.0000
 XYZ=   -1.5029   11.7494    1.3330 Q=    0.4100 A=    0.0000 R=    0.0000 C=    0.0000
 XYZ=   -0.1448   11.0852    1.9504 Q=    0.4100 A=    0.0000 R=    0.0000 C=    0.0000
 XYZ=   -0.5611    3.8062   10.5161 Q=   -0.8200 A=    0.0000 R=    0.0000 C=    0.0000
 XYZ=   -0.7849    4.1456   11.4298 Q=    0.4100 A=    0.0000 R=    0.0000 C=    0.0000
 XYZ=   -1.3338    3.9674    9.9022 Q=    0.4100 A=    0.0000 R=    0.0000 C=    0.0000
 XYZ=    3.3418    4.3713    9.8744 Q=   -0.8200 A=    0.0000 R=    0.0000 C=    0.0000
 XYZ=    2.4158    4.0938    9.6182 Q=    0.4100 A=    0.0000 R=    0.0000 C=    0.0000
 XYZ=    3.9504    4.2676    9.0877 Q=    0.4100 A=    0.0000 R=    0.0000 C=    0.0000
 XYZ=   -7.5684   -6.5820    4.9921 Q=   -0.8200 A=    0.0000 R=    0.0000 C=    0.0000
 XYZ=   -8.4027   -6.6741    4.4485 Q=    0.4100 A=    0.0000 R=    0.0000 C=    0.0000
 XYZ=   -7.0829   -5.7515    4.7192 Q=    0.4100 A=    0.0000 R=    0.0000 C=    0.0000
 XYZ=   -2.4434   -8.7444   -7.8426 Q=   -0.8200 A=    0.0000 R=    0.0000 C=    0.0000
 XYZ=   -2.6833   -9.0561   -8.7620 Q=    0.4100 A=    0.0000 R=    0.0000 C=    0.0000
 XYZ=   -3.2561   -8.7675   -7.2603 Q=    0.4100 A=    0.0000 R=    0.0000 C=    0.0000
 XYZ=    6.5079   -5.1558   -7.8806 Q=   -0.8200 A=    0.0000 R=    0.0000 C=    0.0000
 XYZ=    7.4269   -5.4460   -7.6139 Q=    0.4100 A=    0.0000 R=    0.0000 C=    0.0000
 XYZ=    6.1972   -5.7044   -8.6568 Q=    0.4100 A=    0.0000 R=    0.0000 C=    0.0000
 XYZ=   -3.6450    4.7578   -9.5165 Q=   -0.8200 A=    0.0000 R=    0.0000 C=    0.0000
 XYZ=   -3.3722    5.4525  -10.1821 Q=    0.4100 A=    0.0000 R=    0.0000 C=    0.0000
 XYZ=   -4.5565    4.4163   -9.7459 Q=    0.4100 A=    0.0000 R=    0.0000 C=    0.0000
 XYZ=    7.5164   -3.0742   -8.6758 Q=   -0.8200 A=    0.0000 R=    0.0000 C=    0.0000
 XYZ=    6.9335   -2.3210   -8.3709 Q=    0.4100 A=    0.0000 R=    0.0000 C=    0.0000
 XYZ=    7.2126   -3.9252   -8.2475 Q=    0.4100 A=    0.0000 R=    0.0000 C=    0.0000
 XYZ=    3.0188   11.6251    1.9313 Q=   -0.8200 A=    0.0000 R=    0.0000 C=    0.0000
 XYZ=    2.2411   10.9965    1.9434 Q=    0.4100 A=    0.0000 R=    0.0000 C=    0.0000
 XYZ=    2.6853   12.5673    1.9010 Q=    0.4100 A=    0.0000 R=    0.0000 C=    0.0000
 XYZ=   10.2584    2.7986    0.5489 Q=   -0.8200 A=    0.0000 R=    0.0000 C=    0.0000
 XYZ=    9.4277    3.1825    0.9521 Q=    0.4100 A=    0.0000 R=    0.0000 C=    0.0000
 XYZ=   10.9356    3.5242    0.4265 Q=    0.4100 A=    0.0000 R=    0.0000 C=    0.0000
 XYZ=   -6.7418    7.6895    4.4100 Q=   -0.8200 A=    0.0000 R=    0.0000 C=    0.0000
 XYZ=   -7.3736    8.2909    4.8988 Q=    0.4100 A=    0.0000 R=    0.0000 C=    0.0000
 XYZ=   -5.9340    8.2096    4.1323 Q=    0.4100 A=    0.0000 R=    0.0000 C=    0.0000
 XYZ=  -10.2284   -1.6767    0.8336 Q=   -0.8200 A=    0.0000 R=    0.0000 C=    0.0000
 XYZ=   -9.9247   -1.5470   -0.1103 Q=    0.4100 A=    0.0000 R=    0.0000 C=    0.0000
 XYZ=   -9.4347   -1.8402    1.4196 Q=    0.4100 A=    0.0000 R=    0.0000 C=    0.0000
 XYZ=    5.4839   -2.3893    8.8144 Q=   -0.8200 A=    0.0000 R=    0.0000 C=    0.0000
 XYZ=    6.1448   -1.8138    8.3328 Q=    0.4100 A=    0.0000 R=    0.0000 C=    0.0000
 XYZ=    5.9365   -3.2228    9.1315 Q=    0.4100 A=    0.0000 R=    0.0000 C=    0.0000
 XYZ=   -0.6985    4.7082  -11.4209 Q=   -0.8200 A=    0.0000 R=    0.0000 C=    0.0000
 XYZ=   -1.1985    3.9209  -11.7817 Q=    0.4100 A=    0.0000 R=    0.0000 C=    0.0000
 XYZ=   -0.2081    4.4401  -10.5916 Q=    0.4100 A=    0.0000 R=    0.0000 C=    0.0000
 XYZ=   -5.4181   -9.9881   -4.8520 Q=   -0.8200 A=    0.0000 R=    0.0000 C=    0.0000
 XYZ=   -5.4893   -9.0874   -4.4234 Q=    0.4100 A=    0.0000 R=    0.0000 C=    0.0000
 XYZ=   -6.3311  -10.3126   -5.0993 Q=    0.4100 A=    0.0000 R=    0.0000 C=    0.0000
 XYZ=    6.3899    9.2226    4.0710 Q=   -0.8200 A=    0.0000 R=    0.0000 C=    0.0000
 XYZ=    5.8120    8.4179    4.2077 Q=    0.4100 A=    0.0000 R=    0.0000 C=    0.0000
 XYZ=    5.8631    9.9367    3.6099 Q=    0.4100 A=    0.0000 R=    0.0000 C=    0.0000
 XYZ=   -4.3238    3.2889    9.9467 Q=   -0.8200 A=    0.0000 R=    0.0000 C=    0.0000
 XYZ=   -3.3532    3.4893    9.8131 Q=    0.4100 A=    0.0000 R=    0.0000 C=    0.0000
 XYZ=   -4.8143    3.4285    9.0865 Q=    0.4100 A=    0.0000 R=    0.0000 C=    0.0000
 XYZ=   -5.4299   -9.7236   -0.6655 Q=   -0.8200 A=    0.0000 R=    0.0000 C=    0.0000
 XYZ=   -6.2732   -9.8017   -0.1338 Q=    0.4100 A=    0.0000 R=    0.0000 C=    0.0000
 XYZ=   -5.4645  -10.3552   -1.4401 Q=    0.4100 A=    0.0000 R=    0.0000 C=    0.0000
 XYZ=   -2.1535   10.0867    5.0164 Q=   -0.8200 A=    0.0000 R=    0.0000 C=    0.0000
 XYZ=   -1.8870    9.8579    5.9528 Q=    0.4100 A=    0.0000 R=    0.0000 C=    0.0000
 XYZ=   -3.0885    9.7735    4.8501 Q=    0.4100 A=    0.0000 R=    0.0000 C=    0.0000
 XYZ=   -4.7812    9.2908    4.2587 Q=   -0.8200 A=    0.0000 R=    0.0000 C=    0.0000
 XYZ=   -5.2855    9.9099    4.8607 Q=    0.4100 A=    0.0000 R=    0.0000 C=    0.0000
 XYZ=   -4.9138    9.5694    3.3074 Q=    0.4100 A=    0.0000 R=    0.0000 C=    0.0000
 XYZ=   -4.7517    9.2977   -5.7565 Q=   -0.8200 A=    0.0000 R=    0.0000 C=    0.0000
 XYZ=   -4.1996    8.5271   -5.4382 Q=    0.4100 A=    0.0000 R=    0.0000 C=    0.0000
 XYZ=   -4.2476    9.8015   -6.4581 Q=    0.4100 A=    0.0000 R=    0.0000 C=    0.0000
 XYZ=    7.5325    5.5149   -6.5447 Q=   -0.8200 A=    0.0000 R=    0.0000 C=    0.0000
 XYZ=    7.8169    4.9253   -5.7888 Q=    0.4100 A=    0.0000 R=    0.0000 C=    0.0000
 XYZ=    7.7154    5.0546   -7.4135 Q=    0.4100 A=    0.0000 R=    0.0000 C=    0.0000
 XYZ=   -2.2603   11.8089    0.0727 Q=   -0.8200 A=    0.0000 R=    0.0000 C=    0.0000
 XYZ=   -2.8332   11.1274    0.5280 Q=    0.4100 A=    0.0000 R=    0.0000 C=    0.0000
 XYZ=   -2.7869   12.6475   -0.0666 Q=    0.4100 A=    0.0000 R=    0.0000 C=    0.0000
 XYZ=    8.5844   -7.5758    0.6016 Q=   -0.8200 A=    0.0000 R=    0.0000 C=    0.0000
 XYZ=    9.1178   -6.7403    0.7335 Q=    0.4100 A=    0.0000 R=    0.0000 C=    0.0000
 XYZ=    7.6756   -7.4576    1.0017 Q=    0.4100 A=    0.0000 R=    0.0000 C=    0.0000
 XYZ=   -4.2459   -8.7900    6.0985 Q=   -0.8200 A=    0.0000 R=    0.0000 C=    0.0000
 XYZ=   -4.7213   -8.2975    5.3694 Q=    0.4100 A=    0.0000 R=    0.0000 C=    0.0000
 XYZ=   -4.5148   -8.4136    6.9851 Q=    0.4100 A=    0.0000 R=    0.0000 C=    0.0000
 XYZ=    1.1618   -8.7884   -9.3519 Q=   -0.8200 A=    0.0000 R=    0.0000 C=    0.0000
 XYZ=    0.3228   -8.3188   -9.0768 Q=    0.4100 A=    0.0000 R=    0.0000 C=    0.0000
 XYZ=    1.8294   -8.7406   -8.6089 Q=    0.4100 A=    0.0000 R=    0.0000 C=    0.0000
 XYZ=   -1.5519   -7.2160    8.3675 Q=   -0.8200 A=    0.0000 R=    0.0000 C=    0.0000
 XYZ=   -0.8127   -6.5435    8.4047 Q=    0.4100 A=    0.0000 R=    0.0000 C=    0.0000
 XYZ=   -2.4325   -6.7424    8.3476 Q=    0.4100 A=    0.0000 R=    0.0000 C=    0.0000
 XYZ=   -1.3644    9.6019    7.0912 Q=   -0.8200 A=    0.0000 R=    0.0000 C=    0.0000
 XYZ=   -0.4774    9.2743    6.7656 Q=    0.4100 A=    0.0000 R=    0.0000 C=    0.0000
 XYZ=   -1.7420    8.9468    7.7455 Q=    0.4100 A=    0.0000 R=    0.0000 C=    0.0000
 XYZ=    0.6364   -2.8120   11.2960 Q=   -0.8200 A=    0.0000 R=    0.0000 C=    0.0000
 XYZ=    0.4526   -3.4213   10.5247 Q=    0.4100 A=    0.0000 R=    0.0000 C=    0.0000
 XYZ=   -0.1823   -2.2748   11.4988 Q=    0.4100 A=    0.0000 R=    0.0000 C=    0.0000
 XYZ=   10.6256    1.9899   -3.1029 Q=   -0.8200 A=    0.0000 R=    0.0000 C=    0.0000
 XYZ=    9.8437    2.0798   -2.4860 Q=    0.4100 A=    0.0000 R=    0.0000 C=    0.0000
 XYZ=   11.3828    1.5505   -2.6195 Q=    0.4100 A=    0.0000 R=    0.0000 C=    0.0000
 XYZ=    7.3154    5.3995    6.0595 Q=   -0.8200 A=    0.0000 R=    0.0000 C=    0.0000
 XYZ=    7.7724    5.6379    5.2027 Q=    0.4100 A=    0.0000 R=    0.0000 C=    0.0000
 XYZ=    7.6059    6.0304    6.7790 Q=    0.4100 A=    0.0000 R=    0.0000 C=    0.0000
 XYZ=   -6.9505    0.7155    8.9228 Q=   -0.8200 A=    0.0000 R=    0.0000 C=    0.0000
 XYZ=   -7.3451    0.3200    8.0934 Q=    0.4100 A=    0.0000 R=    0.0000 C=    0.0000
 XYZ=   -6.4484    0.0095    9.4224 Q=    0.4100 A=    0.0000 R=    0.0000 C=    0.0000
 XYZ=   -2.5453   -0.7572  -12.1204 Q=   -0.8200 A=    0.0000 R=    0.0000 C=    0.0000
 XYZ=   -1.9793   -1.4393  -11.6573 Q=    0.4100 A=    0.0000 R=    0.0000 C=    0.0000
 XYZ=   -3.5049   -1.0349  -12.0762 Q=    0.4100 A=    0.0000 R=    0.0000 C=    0.0000
 XYZ=    4.1408   -1.2811   10.6946 Q=   -0.8200 A=    0.0000 R=    0.0000 C=    0.0000
 XYZ=    4.5353   -1.8381    9.9638 Q=    0.4100 A=    0.0000 R=    0.0000 C=    0.0000
 XYZ=    4.8695   -0.7828   11.1643 Q=    0.4100 A=    0.0000 R=    0.0000 C=    0.0000
 XYZ=   -3.0656  -11.5140    2.3571 Q=   -0.8200 A=    0.0000 R=    0.0000 C=    0.0000
 XYZ=   -2.3974  -10.9727    2.8675 Q=    0.4100 A=    0.0000 R=    0.0000 C=    0.0000
 XYZ=   -3.2658  -11.0625    1.4875 Q=    0.4100 A=    0.0000 R=    0.0000 C=    0.0000
 XYZ=    3.6065   -1.4838  -11.8727 Q=   -0.8200 A=    0.0000 R=    0.0000 C=    0.0000
 XYZ=    3.1810   -0.7597  -11.3299 Q=    0.4100 A=    0.0000 R=    0.0000 C=    0.0000
 XYZ=    3.8713   -2.2385  -11.2725 Q=    0.4100 A=    0.0000 R=    0.0000 C=    0.0000
 XYZ=   -9.5505    1.5569   -4.5915 Q=   -0.8200 A=    0.0000 R=    0.0000 C=    0.0000
 XYZ=   -9.6826    1.5239   -3.6008 Q=    0.4100 A=    0.0000 R=    0.0000 C=    0.0000
 XYZ=  -10.4116    1.3373   -5.0501 Q=    0.4100 A=    0.0000 R=    0.0000 C=    0.0000
 XYZ=    0.0508    7.7288    9.4113 Q=   -0.8200 A=    0.0000 R=    0.0000 C=    0.0000
 XYZ=    0.2158    7.3817   10.3345 Q=    0.4100 A=    0.0000 R=    0.0000 C=    0.0000
 XYZ=    0.6370    7.2431    8.7629 Q=    0.4100 A=    0.0000 R=    0.0000 C=    0.0000
 XYZ=    2.4222   -7.2482  -10.5024 Q=   -0.8200 A=    0.0000 R=    0.0000 C=    0.0000
 XYZ=    1.9590   -8.0287  -10.0823 Q=    0.4100 A=    0.0000 R=    0.0000 C=    0.0000
 XYZ=    3.1759   -6.9526   -9.9154 Q=    0.4100 A=    0.0000 R=    0.0000 C=    0.0000
 XYZ=   -8.6527    2.1260   -8.2112 Q=   -0.8200 A=    0.0000 R=    0.0000 C=    0.0000
 XYZ=   -9.0901    2.6704   -7.4955 Q=    0.4100 A=    0.0000 R=    0.0000 C=    0.0000
 XYZ=   -7.6665    2.0924   -8.0486 Q=    0.4100 A=    0.0000 R=    0.0000 C=    0.0000
 XYZ=    6.1693    9.9580    0.9135 Q=   -0.8200 A=    0.0000 R=    0.0000 C=    0.0000
 XYZ=    5.5705   10.3301    0.2043 Q=    0.4100 A=    0.0000 R=    0.0000 C=    0.0000
 XYZ=    5.8582   10.2715    1.8107 Q=    0.4100 A=    0.0000 R=    0.0000 C=    0.0000
 XYZ=   -2.1362  -11.5996   -1.1408 Q=   -0.8200 A=    0.0000 R=    0.0000 C=    0.0000
 XYZ=   -1.5639  -12.3162   -0.7422 Q=    0.4100 A=    0.0000 R=    0.0000 C=    0.0000
 XYZ=   -2.7256  -11.9966   -1.8444 Q=    0.4100 A=    0.0000 R=    0.0000 C=    0.0000
 XYZ=   -5.5740   10.1236    2.2050 Q=   -0.8200 A=    0.0000 R=    0.0000 C=    0.0000
 XYZ=   -6.3175    9.5628    1.8406 Q=    0.4100 A=    0.0000 R=    0.0000 C=    0.0000
 XYZ=   -5.9537   10.9463    2.6282 Q=    0.4100 A=    0.0000 R=    0.0000 C=    0.0000
 XYZ=  -10.1206    1.4621   -2.0581 Q=   -0.8200 A=    0.0000 R=    0.0000 C=    0.0000
 XYZ=  -11.1164    1.4275   -2.1438 Q=    0.4100 A=    0.0000 R=    0.0000 C=    0.0000
 XYZ=   -9.8410    2.3838   -1.7892 Q=    0.4100 A=    0.0000 R=    0.0000 C=    0.0000
 XYZ=   -6.5548   -9.5886    3.1404 Q=   -0.8200 A=    0.0000 R=    0.0000 C=    0.0000
 XYZ=   -6.1974   -8.8517    3.7142 Q=    0.4100 A=    0.0000 R=    0.0000 C=    0.0000
 XYZ=   -5.9466  -10.3804    3.1977 Q=    0.4100 A=    0.0000 R=    0.0000 C=    0.0000
 XYZ=    3.2235   11.6597   -0.4324 Q=   -0.8200 A=    0.0000 R=    0.0000 C=    0.0000
 XYZ=    3.2472   11.5164    0.5570 Q=    0.4100 A=    0.0000 R=    0.0000 C=    0.0000
 XYZ=    4.1273   11.4739   -0.8179 Q=    0.4100 A=    0.0000 R=    0.0000 C=    0.0000
 XYZ=   -1.1347   -8.1453  -10.9105 Q=   -0.8200 A=    0.0000 R=    0.0000 C=    0.0000
 XYZ=   -1.9547   -7.6954  -11.2644 Q=    0.4100 A=    0.0000 R=    0.0000 C=    0.0000
 XYZ=   -0.9708   -7.8476   -9.9700 Q=    0.4100 A=    0.0000 R=    0.0000 C=    0.0000
 XYZ=   -7.2293   -9.3451    0.9672 Q=   -0.8200 A=    0.0000 R=    0.0000 C=    0.0000
 XYZ=   -7.6541   -8.4399    0.9514 Q=    0.4100 A=    0.0000 R=    0.0000 C=    0.0000
 XYZ=   -6.7955   -9.4942    1.8558 Q=    0.4100 A=    0.0000 R=    0.0000 C=    0.0000
 XYZ=   -3.5232   -6.2226    8.4270 Q=   -0.8200 A=    0.0000 R=    0.0000 C=    0.0000
 XYZ=   -4.2372   -6.9038    8.5889 Q=    0.4100 A=    0.0000 R=    0.0000 C=    0.0000
 XYZ=   -3.3011   -5.7619    9.2863 Q=    0.4100 A=    0.0000 R=    0.0000 C=    0.0000
 XYZ=   -1.6783  -11.0663   -7.3385 Q=   -0.8200 A=    0.0000 R=    0.0000 C=    0.0000
 XYZ=   -1.6821  -10.0774   -7.4871 Q=    0.4100 A=    0.0000 R=    0.0000 C=    0.0000
 XYZ=   -2.2517  -11.5091   -8.0279 Q=    0.4100 A=    0.0000 R=    0.0000 C=    0.0000
 XYZ=   -1.3302   -1.7324   11.8823 Q=   -0.8200 A=    0.0000 R=    0.0000 C=    0.0000
 XYZ=   -1.4376   -1.6753   12.8749 Q=    0.4100 A=    0.0000 R=    0.0000 C=    0.0000
 XYZ=   -1.6706   -0.8916   11.4614 Q=    0.4100 A=    0.0000 R=    0.0000 C=    0.0000
 XYZ=    8.3376    8.0823    3.3531 Q=   -0.8200 A=    0.0000 R=    0.0000 C=    0.0000
 XYZ=    8.2198    7.1281    3.6284 Q=    0.4100 A=    0.0000 R=    0.0000 C=    0.0000
 XYZ=    7.4944    8.5882    3.5350 Q=    0.4100 A=    0.0000 R=    0.0000 C=    0.0000
 XYZ=    5.1164   10.8629    2.9489 Q=   -0.8200 A=    0.0000 R=    0.0000 C=    0.0000
 XYZ=    4.2236   11.0076    2.5223 Q=    0.4100 A=    0.0000 R=    0.0000 C=    0.0000
 XYZ=    5.4997   11.7438    3.2266 Q=    0.4100 A=    0.0000 R=    0.0000 C=    0.0000
 XYZ=    8.0805    8.7099    0.8870 Q=   -0.8200 A=    0.0000 R=    0.0000 C=    0.0000
 XYZ=    8.3309    8.3888    1.8003 Q=    0.4100 A=    0.0000 R=    0.0000 C=    0.0000
 XYZ=    7.2227    9.2215    0.9371 Q=    0.4100 A=    0.0000 R=    0.0000 C=    0.0000
 XYZ=   -9.4541    3.3538   -6.3368 Q=   -0.8200 A=    0.0000 R=    0.0000 C=    0.0000
 XYZ=   -8.5868    3.8479   -6.2774 Q=    0.4100 A=    0.0000 R=    0.0000 C=    0.0000
 XYZ=   -9.5741    2.7915   -5.5185 Q=    0.4100 A=    0.0000 R=    0.0000 C=    0.0000
 XYZ=   -0.4408   -0.8049  -13.0518 Q=   -0.8200 A=    0.0000 R=    0.0000 C=    0.0000
 XYZ=    0.0808   -1.0419  -12.2321 Q=    0.4100 A=    0.0000 R=    0.0000 C=    0.0000
 XYZ=   -1.4183   -0.8240  -12.8419 Q=    0.4100 A=    0.0000 R=    0.0000 C=    0.0000
 XYZ=    9.4708   -3.1222   -7.1765 Q=   -0.8200 A=    0.0000 R=    0.0000 C=    0.0000
 XYZ=    8.7742   -2.8109   -7.8230 Q=    0.4100 A=    0.0000 R=    0.0000 C=    0.0000
 XYZ=    9.3198   -2.6874   -6.2888 Q=    0.4100 A=    0.0000 R=    0.0000 C=    0.0000
 XYZ=   10.8788   -1.5386   -3.8841 Q=   -0.8200 A=    0.0000 R=    0.0000 C=    0.0000
 XYZ=   10.2663   -1.5617   -3.0939 Q=    0.4100 A=    0.0000 R=    0.0000 C=    0.0000
 XYZ=   11.8190   -1.3988   -3.5732 Q=    0.4100 A=    0.0000 R=    0.0000 C=    0.0000
 XYZ=   -2.2199    0.4687   12.0833 Q=   -0.8200 A=    0.0000 R=    0.0000 C=    0.0000
 XYZ=   -3.0676    0.7066   11.6093 Q=    0.4100 A=    0.0000 R=    0.0000 C=    0.0000
 XYZ=   -1.4520    0.9405   11.6500 Q=    0.4100 A=    0.0000 R=    0.0000 C=    0.0000
 XYZ=   -7.2847   -3.2442   -9.1462 Q=   -0.8200 A=    0.0000 R=    0.0000 C=    0.0000
 XYZ=   -7.9962   -2.6275   -9.4830 Q=    0.4100 A=    0.0000 R=    0.0000 C=    0.0000
 XYZ=   -7.1839   -4.0131   -9.7776 Q=    0.4100 A=    0.0000 R=    0.0000 C=    0.0000
 XYZ=   -2.9290   -6.4864  -11.5623 Q=   -0.8200 A=    0.0000 R=    0.0000 C=    0.0000
 XYZ=   -3.0029   -6.3995  -12.5558 Q=    0.4100 A=    0.0000 R=    0.0000 C=    0.0000
 XYZ=   -2.2348   -5.8516  -11.2229 Q=    0.4100 A=    0.0000 R=    0.0000 C=    0.0000
 XYZ=   -4.3879    1.1954   11.2179 Q=   -0.8200 A=    0.0000 R=    0.0000 C=    0.0000
 XYZ=   -4.8470    1.3263   12.0967 Q=    0.4100 A=    0.0000 R=    0.0000 C=    0.0000
 XYZ=   -4.2598    2.0820   10.7735 Q=    0.4100 A=    0.0000 R=    0.0000 C=    0.0000
 XYZ=    9.7060    4.0272    4.2763 Q=   -0.8200 A=    0.0000 R=    0.0000 C=    0.0000
 XYZ=    9.6683    3.0375    4.1383 Q=    0.4100 A=    0.0000 R=    0.0000 C=    0.0000
 XYZ=    9.6802    4.2284    5.2556 Q=    0.4100 A=    0.0000 R=    0.0000 C=    0.0000
 XYZ=   -9.1501   -7.0739    3.2960 Q=   -0.8200 A=    0.0000 R=    0.0000 C=    0.0000
 XYZ=   -8.7387   -7.0673    2.3845 Q=    0.4100 A=    0.0000 R=    0.0000 C=    0.0000
 XYZ=   -9.6998   -7.9019    3.4075 Q=    0.4100 A=    0.0000 R=    0.0000 C=    0.0000
 XYZ=   -5.1448   -8.4855   -9.1705 Q=   -0.8200 A=    0.0000 R=    0.0000 C=    0.0000
 XYZ=   -4.3410   -8.7954   -9.6784 Q=    0.4100 A=    0.0000 R=    0.0000 C=    0.0000
 XYZ=   -4.9522   -8.5178   -8.1897 Q=    0.4100 A=    0.0000 R=    0.0000 C=    0.0000
 XYZ=   10.3036    0.5781   -5.0214 Q=   -0.8200 A=    0.0000 R=    0.0000 C=    0.0000
 XYZ=   10.3114    1.2614   -4.2913 Q=    0.4100 A=    0.0000 R=    0.0000 C=    0.0000
 XYZ=   10.4922   -0.3247   -4.6350 Q=    0.4100 A=    0.0000 R=    0.0000 C=    0.0000
 XYZ=   -5.6081    3.7272  -10.1494 Q=   -0.8200 A=    0.0000 R=    0.0000 C=    0.0000
 XYZ=   -6.0217    4.5789  -10.4715 Q=    0.4100 A=    0.0000 R=    0.0000 C=    0.0000
 XYZ=   -5.2771    3.2005  -10.9324 Q=    0.4100 A=    0.0000 R=    0.0000 C=    0.0000
 XYZ=   -4.7361    2.2550  -11.7865 Q=   -0.8200 A=    0.0000 R=    0.0000 C=    0.0000
 XYZ=   -5.3107    1.4415  -11.6961 Q=    0.4100 A=    0.0000 R=    0.0000 C=    0.0000
 XYZ=   -3.7971    2.0305  -11.5261 Q=    0.4100 A=    0.0000 R=    0.0000 C=    0.0000
[...]
    39  O    0.003124   0.000138  -0.000001   0.000000   0.000000   0.000000
    40  H    0.000013   0.000002   0.000000   0.000000   0.000000   0.000000
    41  H   -0.001275   0.000301   0.000000   0.000000   0.000000   0.000000
    42  O   -0.001950   0.000133   0.000010  -0.000001   0.000000   0.000000
    43  H   -0.000060  -0.000009   0.000000   0.000000   0.000000   0.000000
    44  H    0.000589  -0.000007   0.000000   0.000000   0.000000   0.000000
    45  O    0.000188  -0.000774   0.000000   0.000000   0.000000   0.000000
    46  H    0.000039  -0.000249   0.000000   0.000000   0.000000   0.000000
    47  H   -0.000002   0.000012   0.000000   0.000000   0.000000   0.000000
    48  O    0.000000   0.000000  -0.001267  -0.000038   0.000121  -0.000018
    49  H    0.000000   0.000000  -0.000712  -0.000003   0.000011   0.000000
    50  H    0.000000   0.000000  -0.000007   0.000000  -0.000003  -0.000001
              31         32         33         34         35         36
     1  C    0.002900   0.000409   0.002612  -0.000178  -0.000852   0.000231
     2  H    0.000024  -0.000001   0.000002   0.000000   0.000000   0.000004
     3  H   -0.000005   0.000000  -0.000001   0.000000   0.000000   0.000000
     4  C   -0.003011  -0.000302  -0.002724   0.000589   0.000286   0.002915
     5  H    0.000000   0.000000   0.000000   0.000000   0.000000   0.000000
     6  C    0.001288   0.000053   0.000697  -0.000479   0.000475   0.000743
     7  H    0.000000   0.000000   0.000004   0.000000   0.000000  -0.000014
     8  O    0.000063  -0.000002  -0.000099   0.000004  -0.000026  -0.005137
     9  O    0.000002   0.000000  -0.000003   0.000000   0.000000   0.009875
    10  H    0.000000   0.000000  -0.000002   0.000000   0.000000  -0.000588
    11  H    0.000000   0.000000   0.000000   0.000000   0.000000   0.001235
    12  O   -0.000551  -0.000037  -0.000084   0.000044   0.000066   0.000001
    13  H   -0.000008   0.000002  -0.000022   0.000000  -0.000001   0.000000
    14  H   -0.000085  -0.000002  -0.000039   0.000000   0.000000   0.000000
    15  O    0.036709  -0.000536  -0.004002  -0.000308   0.002359  -0.000005
    16  H   -0.005398  -0.000104   0.000203  -0.000002  -0.000017   0.000000
    17  H    0.001236  -0.000019   0.000022   0.000018  -0.000248   0.000000
    18  O   -0.003499   0.000170  -0.000494   0.000014  -0.000031  -0.000151
    19  H    0.002188  -0.000011   0.000051   0.000000  -0.000135   0.000003
    20  H    0.000073   0.000001   0.000039   0.000000   0.000014   0.000125
    21  O   -0.000042  -0.000004  -0.000084  -0.000005   0.000004   0.000000
    22  H    0.000000   0.000000   0.000000   0.000000   0.000000   0.000000
    23  H    0.000000   0.000000  -0.000021  -0.000001  -0.000001   0.000000
    24  O    0.000000   0.000000   0.000000   0.000000   0.000000  -0.149219
    25  H    0.000000   0.000000   0.000000   0.000000   0.000000  -0.000405
    26  H    0.000000   0.000000   0.000000   0.000000   0.000000   0.004002
    27  O   -0.000003   0.000000   0.001285  -0.000016   0.000011   0.000000
    28  H    0.000000   0.000000   0.000016   0.000000   0.000000   0.000000
    29  H    0.000000   0.000000   0.000118  -0.000006   0.000002   0.000000
    30  O    0.102850   0.217558  -0.127563   0.005635   0.048172   0.000000
    31  H    0.235171  -0.010883   0.008204  -0.000620   0.005200   0.000000
    32  H   -0.010883   0.173048  -0.002942  -0.000649  -0.005416   0.000000
    33  O    0.008204  -0.002942   8.847440   0.238677   0.165773   0.000000
    34  H   -0.000620  -0.000649   0.238677   0.237341  -0.014132   0.000000
    35  H    0.005200  -0.005416   0.165773  -0.014132   0.240245   0.000000
    36  O    0.000000   0.000000   0.000000   0.000000   0.000000   9.103346
    37  H    0.000000   0.000000   0.000000   0.000000   0.000000   0.198756
    38  H    0.000000   0.000000   0.000000   0.000000   0.000000   0.154548
    39  O    0.000000   0.000000   0.000000   0.000000   0.000000  -0.107217
    40  H    0.000000   0.000000   0.000000   0.000000   0.000000   0.000468
    41  H    0.000000   0.000000   0.000000   0.000000   0.000000   0.083289
    42  O    0.000000   0.000000   0.000000   0.000000   0.000000   0.000057
    43  H    0.000000   0.000000   0.000000   0.000000   0.000000   0.000002
    44  H    0.000000   0.000000   0.000000   0.000000   0.000000   0.000056
    45  O    0.000000   0.000000   0.000000   0.000000   0.000000   0.005880
    46  H    0.000000   0.000000   0.000000   0.000000   0.000000   0.000397
    47  H    0.000000   0.000000   0.000000   0.000000   0.000000  -0.001572
    48  O   -0.000021   0.000002  -0.000001   0.000000  -0.000002   0.000000
    49  H    0.000001   0.000000   0.000002   0.000000   0.000000   0.000000
    50  H    0.000000   0.000000   0.000002   0.000000   0.000000   0.000000
              37         38         39         40         41         42
     1  C    0.000051  -0.000002   0.000043   0.000008  -0.000046   0.000548
     2  H    0.000000   0.000000   0.000000   0.000000   0.000000   0.000000
     3  H    0.000000   0.000000   0.000000   0.000000   0.000000   0.000000
     4  C   -0.000162  -0.000288   0.000696   0.000123   0.000976  -0.009625
     5  H    0.000000   0.000000   0.000000   0.000000   0.000000   0.000005
     6  C    0.000093   0.000331  -0.003267  -0.000182  -0.001004  -0.002008
     7  H    0.000000  -0.000010  -0.000574   0.000003  -0.000012   0.000796
     8  O   -0.000153   0.000980   0.001554  -0.000133   0.000588  -0.001327
     9  O   -0.000107  -0.000363  -0.110566   0.002368   0.003349  -0.011151
    10  H    0.000008   0.000053  -0.000233  -0.000215   0.000047  -0.000597
    11  H   -0.000028   0.000024   0.033850   0.000234  -0.002007  -0.003552
    12  O    0.000000   0.000000  -0.000001   0.000000   0.000000   0.000000
    13  H    0.000000   0.000000   0.000000   0.000000   0.000000   0.000000
    14  H    0.000000   0.000000   0.000000   0.000000   0.000000   0.000000
    15  O    0.000000   0.000000  -0.000004   0.000000   0.000000   0.000000
    16  H    0.000000   0.000000   0.000000   0.000000   0.000000   0.000000
    17  H    0.000000   0.000000   0.000000   0.000000   0.000000   0.000000
    18  O   -0.000013   0.000007  -0.000063   0.000001   0.000006  -0.000001
    19  H    0.000000   0.000000   0.000002   0.000000   0.000000   0.000000
    20  H   -0.000014  -0.000001  -0.000050   0.000000  -0.000009   0.000000
    21  O    0.000000   0.000000  -0.000001   0.000000   0.000000   0.000003
    22  H    0.000000   0.000000   0.000000   0.000000   0.000000   0.000000
    23  H    0.000000   0.000000   0.000000   0.000000   0.000000   0.000000
    24  O    0.002411   0.005629  -0.040564   0.000585   0.005347  -0.002923
    25  H   -0.000058   0.003994   0.003124   0.000013  -0.001275  -0.001950
    26  H   -0.000019  -0.001203   0.000138   0.000002   0.000301   0.000133
    27  O    0.000000   0.000000  -0.000001   0.000000   0.000000   0.000010
    28  H    0.000000   0.000000   0.000000   0.000000   0.000000  -0.000001
    29  H    0.000000   0.000000   0.000000   0.000000   0.000000   0.000000
    30  O    0.000000   0.000000   0.000000   0.000000   0.000000   0.000000
    31  H    0.000000   0.000000   0.000000   0.000000   0.000000   0.000000
    32  H    0.000000   0.000000   0.000000   0.000000   0.000000   0.000000
    33  O    0.000000   0.000000   0.000000   0.000000   0.000000   0.000000
    34  H    0.000000   0.000000   0.000000   0.000000   0.000000   0.000000
    35  H    0.000000   0.000000   0.000000   0.000000   0.000000   0.000000
    36  O    0.198756   0.154548  -0.107217   0.000468   0.083289   0.000057
    37  H    0.155581  -0.006203   0.000594   0.000041  -0.000992   0.000000
    38  H   -0.006203   0.220434   0.004594  -0.000016  -0.003627   0.000002
    39  O    0.000594   0.004594   9.126104   0.184530   0.121879  -0.001635
    40  H    0.000041  -0.000016   0.184530   0.137275   0.000105   0.000039
    41  H   -0.000992  -0.003627   0.121879   0.000105   0.216664  -0.000053
    42  O    0.000000   0.000002  -0.001635   0.000039  -0.000053   8.896919
    43  H    0.000000   0.000000  -0.000447  -0.000001   0.000000   0.218249
    44  H    0.000000  -0.000002   0.002434  -0.000013   0.000003   0.139149
    45  O   -0.001440   0.000495   0.000168  -0.000002   0.000016  -0.000001
    46  H   -0.000133   0.000492   0.000033   0.000000   0.000002   0.000000
    47  H   -0.000006   0.000044  -0.000027   0.000000   0.000010   0.000000
    48  O    0.000000   0.000000   0.000000   0.000000   0.000000   0.000000
    49  H    0.000000   0.000000   0.000000   0.000000   0.000000   0.000000
    50  H    0.000000   0.000000   0.000000   0.000000   0.000000   0.000000
              43         44         45         46         47         48
     1  C    0.000000  -0.000136   0.000042   0.000117  -0.000004   0.003612
     2  H    0.000000   0.000000   0.000000   0.000000   0.000000  -0.000003
     3  H    0.000000   0.000000   0.000000   0.000000   0.000000  -0.000120
     4  C    0.000097   0.002505  -0.000069  -0.000169   0.000009  -0.007212
     5  H    0.000000  -0.000001   0.000000   0.000000   0.000000   0.000027
     6  C    0.000206  -0.000988   0.000104   0.000296  -0.000004   0.001753
     7  H    0.000004  -0.000005   0.000000   0.000000   0.000000   0.000000
     8  O   -0.000022   0.001469  -0.000102  -0.000134   0.000004  -0.000010
     9  O    0.000453   0.058413   0.000016   0.000021   0.000000   0.000000
    10  H    0.000034  -0.000860   0.000001   0.000000   0.000000   0.000000
    11  H   -0.000038   0.002003  -0.000003   0.000000   0.000000   0.000000
    12  O    0.000000   0.000000   0.000000   0.000000   0.000000  -0.024476
    13  H    0.000000   0.000000   0.000000   0.000000   0.000000   0.000518
    14  H    0.000000   0.000000   0.000000   0.000000   0.000000   0.000952
    15  O    0.000000   0.000000   0.000000   0.000000   0.000000   0.000119
    16  H    0.000000   0.000000   0.000000   0.000000   0.000000  -0.000007
    17  H    0.000000   0.000000   0.000000   0.000000   0.000000   0.000234
    18  O    0.000000   0.000000  -0.000004   0.000000   0.000000  -0.000012
    19  H    0.000000   0.000000   0.000000   0.000000   0.000000  -0.000002
    20  H    0.000000   0.000000   0.000000   0.000000   0.000000   0.000000
    21  O    0.000000   0.000000   0.000000   0.000000   0.000000  -0.055506
    22  H    0.000000   0.000000   0.000000   0.000000   0.000000   0.002375
    23  H    0.000000   0.000000   0.000000   0.000000   0.000000   0.000717
    24  O    0.000082  -0.000307   0.004395   0.006253   0.000125   0.000000
    25  H   -0.000060   0.000589   0.000188   0.000039  -0.000002   0.000000
    26  H   -0.000009  -0.000007  -0.000774  -0.000249   0.000012   0.000000
    27  O    0.000000   0.000000   0.000000   0.000000   0.000000  -0.001267
    28  H    0.000000   0.000000   0.000000   0.000000   0.000000  -0.000038
    29  H    0.000000   0.000000   0.000000   0.000000   0.000000   0.000121
    30  O    0.000000   0.000000   0.000000   0.000000   0.000000  -0.000018
    31  H    0.000000   0.000000   0.000000   0.000000   0.000000  -0.000021
    32  H    0.000000   0.000000   0.000000   0.000000   0.000000   0.000002
    33  O    0.000000   0.000000   0.000000   0.000000   0.000000  -0.000001
    34  H    0.000000   0.000000   0.000000   0.000000   0.000000   0.000000
    35  H    0.000000   0.000000   0.000000   0.000000   0.000000  -0.000002
    36  O    0.000002   0.000056   0.005880   0.000397  -0.001572   0.000000
    37  H    0.000000   0.000000  -0.001440  -0.000133  -0.000006   0.000000
    38  H    0.000000  -0.000002   0.000495   0.000492   0.000044   0.000000
    39  O   -0.000447   0.002434   0.000168   0.000033  -0.000027   0.000000
    40  H   -0.000001  -0.000013  -0.000002   0.000000   0.000000   0.000000
    41  H    0.000000   0.000003   0.000016   0.000002   0.000010   0.000000
    42  O    0.218249   0.139149  -0.000001   0.000000   0.000000   0.000000
    43  H    0.161129  -0.002924   0.000000   0.000000   0.000000   0.000000
    44  H   -0.002924   0.197873   0.000000   0.000000   0.000000   0.000000
    45  O    0.000000   0.000000   8.732179   0.215444   0.201317   0.000000
    46  H    0.000000   0.000000   0.215444   0.274943  -0.006038   0.000000
    47  H    0.000000   0.000000   0.201317  -0.006038   0.139057   0.000000
    48  O    0.000000   0.000000   0.000000   0.000000   0.000000   9.005343
    49  H    0.000000   0.000000   0.000000   0.000000   0.000000   0.137673
    50  H    0.000000   0.000000   0.000000   0.000000   0.000000   0.202443
              49         50
     1  C    0.000597  -0.000205
     2  H    0.000000   0.000000
     3  H   -0.000003   0.000000
     4  C    0.000132   0.000162
     5  H    0.000071   0.000000
     6  C   -0.000126   0.000053
     7  H    0.000000   0.000000
     8  O    0.000001   0.000000
     9  O    0.000000   0.000000
    10  H    0.000000   0.000000
    11  H    0.000000   0.000000
    12  O    0.001327  -0.001414
    13  H   -0.000046  -0.000119
    14  H   -0.000846  -0.000225
    15  O    0.000014   0.000012
    16  H    0.000000   0.000000
    17  H   -0.000023  -0.000009
    18  O    0.000000   0.000000
    19  H    0.000000   0.000000
    20  H    0.000000   0.000000
    21  O    0.031392   0.002202
    22  H   -0.001122  -0.000043
    23  H    0.000062  -0.000180
    24  O    0.000000   0.000000
    25  H    0.000000   0.000000
    26  H    0.000000   0.000000
    27  O   -0.000712  -0.000007
    28  H   -0.000003   0.000000
    29  H    0.000011  -0.000003
    30  O    0.000000  -0.000001
    31  H    0.000001   0.000000
    32  H    0.000000   0.000000
    33  O    0.000002   0.000002
    34  H    0.000000   0.000000
    35  H    0.000000   0.000000
    36  O    0.000000   0.000000
    37  H    0.000000   0.000000
    38  H    0.000000   0.000000
    39  O    0.000000   0.000000
    40  H    0.000000   0.000000
    41  H    0.000000   0.000000
    42  O    0.000000   0.000000
    43  H    0.000000   0.000000
    44  H    0.000000   0.000000
    45  O    0.000000   0.000000
    46  H    0.000000   0.000000
    47  H    0.000000   0.000000
    48  O    0.137673   0.202443
    49  H    0.216344  -0.005087
    50  H   -0.005087   0.179103
 Mulliken charges:
               1
     1  C   -0.398954
     2  H    0.284969
     3  H    0.250004
     4  C   -0.023722
     5  H    0.200702
     6  C   -0.044946
     7  H    0.145062
     8  O   -0.340844
     9  O   -1.305646
    10  H    0.482813
    11  H    0.649594
    12  O   -1.152696
    13  H    0.593127
    14  H    0.615318
    15  O   -1.438895
    16  H    0.711088
    17  H    0.647585
    18  O   -1.127650
    19  H    0.641313
    20  H    0.524098
    21  O   -1.282154
    22  H    0.596179
    23  H    0.654387
    24  O   -1.163343
    25  H    0.614540
    26  H    0.614637
    27  O   -1.083308
    28  H    0.605625
    29  H    0.522083
    30  O   -1.217768
    31  H    0.628217
    32  H    0.629665
    33  O   -1.127064
    34  H    0.534077
    35  H    0.558256
    36  O   -1.301625
    37  H    0.651793
    38  H    0.620088
    39  O   -1.215095
    40  H    0.674765
    41  H    0.576442
    42  O   -1.221085
    43  H    0.623245
    44  H    0.600751
    45  O   -1.157851
    46  H    0.508685
    47  H    0.667076
    48  O   -1.267193
    49  H    0.620340
    50  H    0.623315
 Sum of Mulliken charges =   0.00000
 Mulliken charges with hydrogens summed into heavy atoms:
               1
     1  C    0.136019
     4  C    0.176979
     6  C    0.100116
     8  O   -0.340844
     9  O   -0.173240
    12  O    0.055749
    15  O   -0.080222
    18  O    0.037761
    21  O   -0.031588
    24  O    0.065834
    27  O    0.044400
    30  O    0.040114
    33  O   -0.034731
    36  O   -0.029744
    39  O    0.036113
    42  O    0.002911
    45  O    0.017910
    48  O   -0.023538
 Electronic spatial extent (au):  <R**2>=          11167.6184
 Charge=              0.0000 electrons
 Dipole moment (field-independent basis, Debye):
    X=             10.1209    Y=              6.0214    Z=             -2.7104  Tot=             12.0845
 Quadrupole moment (field-independent basis, Debye-Ang):
   XX=            -91.7396   YY=           -135.4411   ZZ=           -145.9446
   XY=             -0.3546   XZ=              0.5108   YZ=             -3.8569
 Traceless Quadrupole moment (field-independent basis, Debye-Ang):
   XX=             32.6355   YY=            -11.0660   ZZ=            -21.5695
   XY=             -0.3546   XZ=              0.5108   YZ=             -3.8569
 Octapole moment (field-independent basis, Debye-Ang**2):
  XXX=             29.2392  YYY=              9.6172  ZZZ=            -15.6210  XYY=            239.9983
  XXY=              2.0589  XXZ=            149.1422  XZZ=              4.3098  YZZ=             77.0512
  YYZ=            -19.1018  XYZ=            117.1631
 Hexadecapole moment (field-independent basis, Debye-Ang**3):
 XXXX=          -7440.8814 YYYY=          -3455.4234 ZZZZ=          -2194.3054 XXXY=          -1028.7173
 XXXZ=            865.3772 YYYX=            433.2926 YYYZ=           -149.6830 ZZZX=           -521.3871
 ZZZY=             -3.9554 XXYY=          -1726.7926 XXZZ=          -2211.6393 YYZZ=           -950.6160
 XXYZ=           -240.5697 YYXZ=           -132.0120 ZZXY=            -94.9641
 N-N= 1.185810551355D+03 E-N=-6.338137145271D+03  KE= 1.249710148040D+03
 Leave Link  601 at Fri Sep 14 18:29:28 2018, MaxMem=    33554432 cpu:         5.5
 (Enter /usr/local/pacerepov1/gaussian/G09D01LINDA/g09/l9999.exe)

 Test job not archived.
 1\1\GINC-RICH133-C36-32-L\SP\RLC-wPBE TD-FC\6-31+G(d)\C3H32O15\ROOT\14
 -Sep-2018\0\\#p td=(nstates=15)/6-31+g(d) lc-wpbe charge\\Acroleina in
  Water\\0,1\C,0,0.485154,0.480443,-1.430142\H,0,1.461403,0.187773,-1.0
 55732\H,0,0.429244,0.878853,-2.437062\C,0,-0.605127,0.346563,-0.658432
 \H,0,-1.591686,0.632893,-1.012412\C,0,-0.508516,-0.199107,0.712798\H,0
 ,-1.458487,-0.272107,1.272438\O,0,0.544883,-0.561317,1.236519\O,0,-0.8
 12045,-1.703623,2.741611\H,0,-0.615765,-0.829194,2.297931\H,0,-0.33969
 5,-1.744003,3.622121\O,0,0.365495,3.000386,-1.882829\H,0,0.540165,3.67
 9616,-2.595659\H,0,-0.612165,2.980917,-1.673399\O,0,2.383875,2.721836,
 -0.698749\H,0,3.183425,3.089156,-1.173919\H,0,1.552305,3.011127,-1.172
 959\O,0,3.159605,0.759776,0.309471\H,0,2.819795,1.574396,-0.160649\H,0
 ,2.482775,0.455076,0.979611\O,0,-2.110435,3.023996,-1.462949\H,0,-2.79
 0845,2.464456,-1.936229\H,0,-2.211185,2.906487,-0.474989\O,0,0.696965,
 -3.639163,2.224401\H,0,-0.115675,-3.056374,2.228641\H,0,0.418995,-4.59
 8913,2.264121\O,0,-2.614485,3.092276,0.840591\H,0,-3.592665,2.928906,0
 .969341\H,0,-2.219425,3.437747,1.691841\O,0,3.155215,4.414627,0.898161
 \H,0,2.712985,3.680586,0.382751\H,0,3.107655,5.265147,0.374321\O,0,1.3
 25145,4.797837,2.335961\H,0,0.919555,5.564567,1.838361\H,0,2.018225,4.
 358737,1.764201\O,0,2.545845,-3.094573,3.320301\H,0,3.326205,-2.758814
 ,2.792701\H,0,1.832125,-3.410654,2.695221\O,0,0.672325,-2.005414,4.515
 921\H,0,1.156265,-1.477214,5.21367\H,0,1.328165,-2.349833,3.844151\O,0
 ,-3.150475,-2.435014,3.937241\H,0,-2.885125,-3.338403,4.27414\H,0,-2.3
 47355,-1.968383,3.566701\O,0,3.256705,-5.361583,0.734461\H,0,2.660435,
 -4.574683,0.575371\H,0,3.240745,-5.600924,1.705271\O,0,-1.616225,4.989
 197,-2.814519\H,0,-1.992285,4.238027,-2.271949\H,0,-1.532915,5.804787,
 -2.241889\\Version=EM64L-G09RevD.01\State=1-A\HF=-1759.217531\RMSD=4.1
 71e-09\PG=C01 [X(C3H32O15)]\\@


 EVERYTHING'S GOT A MORAL, IF ONLY YOU CAN FIND IT.

                                    -- LEWIS CARROL, ALICE IN WONDERLAND
 Job cpu time:       0 days  4 hours  7 minutes 37.2 seconds.
 File lengths (MBytes):  RWF=    792 Int=      0 D2E=      0 Chk=     96 Scr=      2
 Normal termination of Gaussian 09 at Fri Sep 14 18:29:33 2018.
