 Entering Gaussian System, Link 0=g09
 Input=Acroleina_water_15_21c.gjf
 Output=Acroleina_water_15_21c.log
 Initial command:
 /usr/local/pacerepov1/gaussian/G09D01LINDA/g09/l1.exe /nv/hp18/holiveira7/scratch/22411835/Gau-31576.inp -scrdir=/nv/hp18/holiveira7/scratch/22411835/
 Entering Link 1 = /usr/local/pacerepov1/gaussian/G09D01LINDA/g09/l1.exe PID=     31577.
  
 Copyright (c) 1988,1990,1992,1993,1995,1998,2003,2009,2013,
            Gaussian, Inc.  All Rights Reserved.
  
 This is part of the Gaussian(R) 09 program.  It is based on
 the Gaussian(R) 03 system (copyright 2003, Gaussian, Inc.),
 the Gaussian(R) 98 system (copyright 1998, Gaussian, Inc.),
 the Gaussian(R) 94 system (copyright 1995, Gaussian, Inc.),
 the Gaussian 92(TM) system (copyright 1992, Gaussian, Inc.),
 the Gaussian 90(TM) system (copyright 1990, Gaussian, Inc.),
 the Gaussian 88(TM) system (copyright 1988, Gaussian, Inc.),
 the Gaussian 86(TM) system (copyright 1986, Carnegie Mellon
 University), and the Gaussian 82(TM) system (copyright 1983,
 Carnegie Mellon University). Gaussian is a federally registered
 trademark of Gaussian, Inc.
  
 This software contains proprietary and confidential information,
 including trade secrets, belonging to Gaussian, Inc.
  
 This software is provided under written license and may be
 used, copied, transmitted, or stored only in accord with that
 written license.
  
 The following legend is applicable only to US Government
 contracts under FAR:
  
                    RESTRICTED RIGHTS LEGEND
  
 Use, reproduction and disclosure by the US Government is
 subject to restrictions as set forth in subparagraphs (a)
 and (c) of the Commercial Computer Software - Restricted
 Rights clause in FAR 52.227-19.
  
 Gaussian, Inc.
 340 Quinnipiac St., Bldg. 40, Wallingford CT 06492
  
  
 ---------------------------------------------------------------
 Warning -- This program may not be used in any manner that
 competes with the business of Gaussian, Inc. or will provide
 assistance to any competitor of Gaussian, Inc.  The licensee
 of this program is prohibited from giving any competitor of
 Gaussian, Inc. access to this program.  By using this program,
 the user acknowledges that Gaussian, Inc. is engaged in the
 business of creating and licensing software in the field of
 computational chemistry and represents and warrants to the
 licensee that it is not a competitor of Gaussian, Inc. and that
 it will not use this program in any manner prohibited above.
 ---------------------------------------------------------------
  

 Cite this work as:
 Gaussian 09, Revision D.01,
 M. J. Frisch, G. W. Trucks, H. B. Schlegel, G. E. Scuseria, 
 M. A. Robb, J. R. Cheeseman, G. Scalmani, V. Barone, B. Mennucci, 
 G. A. Petersson, H. Nakatsuji, M. Caricato, X. Li, H. P. Hratchian, 
 A. F. Izmaylov, J. Bloino, G. Zheng, J. L. Sonnenberg, M. Hada, 
 M. Ehara, K. Toyota, R. Fukuda, J. Hasegawa, M. Ishida, T. Nakajima, 
 Y. Honda, O. Kitao, H. Nakai, T. Vreven, J. A. Montgomery, Jr., 
 J. E. Peralta, F. Ogliaro, M. Bearpark, J. J. Heyd, E. Brothers, 
 K. N. Kudin, V. N. Staroverov, T. Keith, R. Kobayashi, J. Normand, 
 K. Raghavachari, A. Rendell, J. C. Burant, S. S. Iyengar, J. Tomasi, 
 M. Cossi, N. Rega, J. M. Millam, M. Klene, J. E. Knox, J. B. Cross, 
 V. Bakken, C. Adamo, J. Jaramillo, R. Gomperts, R. E. Stratmann, 
 O. Yazyev, A. J. Austin, R. Cammi, C. Pomelli, J. W. Ochterski, 
 R. L. Martin, K. Morokuma, V. G. Zakrzewski, G. A. Voth, 
 P. Salvador, J. J. Dannenberg, S. Dapprich, A. D. Daniels, 
 O. Farkas, J. B. Foresman, J. V. Ortiz, J. Cioslowski, 
 and D. J. Fox, Gaussian, Inc., Wallingford CT, 2013.
 
 ******************************************
 Gaussian 09:  EM64L-G09RevD.01 24-Apr-2013
                14-Sep-2018 
 ******************************************
 %chk=Acrolina_Din_21.chk
 %nprocshared=10
 Will use up to   10 processors via shared memory.
 -------------------------------------------
 #p td=(nstates=15)/6-31+g(d) lc-wpbe charge
 -------------------------------------------
 1/18=10,28=-2,38=1,125=101/1;
 2/12=2,17=6,18=5,40=1/2;
 3/5=1,6=6,7=11,11=9,16=1,25=1,30=1,74=-41/1,2,8,3;
 4//1;
 5/5=2,38=5/2;
 8/6=1,10=2,108=15/1;
 9/41=15,42=1,70=2/14;
 6/7=2,8=2,9=2,10=2/1;
 99/5=1,9=1/99;
 Leave Link    1 at Fri Sep 14 16:37:02 2018, MaxMem=           0 cpu:         3.8
 (Enter /usr/local/pacerepov1/gaussian/G09D01LINDA/g09/l101.exe)
 ------------------
 Acroleina in Water
 ------------------
 Symbolic Z-matrix:
 Charge =  0 Multiplicity = 1
 C                     0.48515   0.48044  -1.43014 
 H                     1.4614    0.18777  -1.05573 
 H                     0.42924   0.87885  -2.43706 
 C                    -0.60513   0.34656  -0.65843 
 H                    -1.59169   0.63289  -1.01241 
 C                    -0.50852  -0.19911   0.7128 
 H                    -1.45849  -0.27211   1.27244 
 O                     0.54488  -0.56132   1.23652 
 O                     2.19394   2.10448   1.01054 
 H                     1.82302   2.98586   0.71783 
 H                     1.46281   1.55125   1.40978 
 O                    -1.20202  -0.87442   3.66346 
 H                    -0.89086  -0.26329   2.93564 
 H                    -0.83769  -0.56088   4.54039 
 O                     3.24931  -0.22304  -4.33454 
 H                     2.73798   0.40674  -4.91935 
 H                     3.80221   0.29946  -3.68543 
 O                     4.58308   2.21192   0.80667 
 H                     4.84368   2.31436  -0.15335 
 H                     3.59682   2.05911   0.8698 
 O                    -0.09942  -2.87254   2.863 
 H                    -0.66176  -2.05581   2.73343 
 H                    -0.58174  -3.51888   3.45428 
 O                    -3.47963  -0.78464   4.38233 
 H                    -3.35583  -1.40936   5.15334 
 H                    -2.63537  -0.74333   3.84796 
 O                     4.64494  -2.27186  -3.95681 
 H                     5.10102  -2.01115  -3.10588 
 H                     4.10282  -1.50205  -4.2938 
 O                     4.94158   0.75731  -3.00151 
 H                     5.60047   0.75829  -3.75377 
 H                     5.11872  -0.02503  -2.40434 
 O                     5.41896  -1.30765  -2.03038 
 H                     6.26828  -1.1127   -1.53975 
 H                     4.83743  -1.89654  -1.46905 
 O                     1.56183  -1.82105   4.46254 
 H                     2.29681  -1.34959   3.97512 
 H                     1.02745  -2.36437   3.81502 
 O                     1.94485   1.1237   -5.93979 
 H                     2.19728   1.62419  -6.76793 
 H                     0.99347   1.32434  -5.7061 
 O                     5.1505    2.37228  -1.36435 
 H                     4.91714   3.28798  -1.69164 
 H                     5.01389   1.71009  -2.1012 
 O                     1.38258   4.18222   0.5494 
 H                     1.94617   4.59458  -0.16637 
 H                     0.42469   4.42964   0.40334 
 O                     0.14033  -0.36994   5.59458 
 H                     0.72932   0.22069   6.14618 
 H                     0.70559  -0.95123   5.00926 
 
 NAtoms=     50 NQM=       50 NQMF=       0 NMMI=      0 NMMIF=      0
                NMic=       0 NMicF=      0.
                    Isotopes and Nuclear Properties:
 (Nuclear quadrupole moments (NQMom) in fm**2, nuclear magnetic moments (NMagM)
  in nuclear magnetons)

  Atom         1           2           3           4           5           6           7           8           9          10
 IAtWgt=          12           1           1          12           1          12           1          16          16           1
 AtmWgt=  12.0000000   1.0078250   1.0078250  12.0000000   1.0078250  12.0000000   1.0078250  15.9949146  15.9949146   1.0078250
 NucSpn=           0           1           1           0           1           0           1           0           0           1
 AtZEff=   0.0000000   0.0000000   0.0000000   0.0000000   0.0000000   0.0000000   0.0000000   0.0000000   0.0000000   0.0000000
 NQMom=    0.0000000   0.0000000   0.0000000   0.0000000   0.0000000   0.0000000   0.0000000   0.0000000   0.0000000   0.0000000
 NMagM=    0.0000000   2.7928460   2.7928460   0.0000000   2.7928460   0.0000000   2.7928460   0.0000000   0.0000000   2.7928460
 AtZNuc=   6.0000000   1.0000000   1.0000000   6.0000000   1.0000000   6.0000000   1.0000000   8.0000000   8.0000000   1.0000000

  Atom        11          12          13          14          15          16          17          18          19          20
 IAtWgt=           1          16           1           1          16           1           1          16           1           1
 AtmWgt=   1.0078250  15.9949146   1.0078250   1.0078250  15.9949146   1.0078250   1.0078250  15.9949146   1.0078250   1.0078250
 NucSpn=           1           0           1           1           0           1           1           0           1           1
 AtZEff=   0.0000000   0.0000000   0.0000000   0.0000000   0.0000000   0.0000000   0.0000000   0.0000000   0.0000000   0.0000000
 NQMom=    0.0000000   0.0000000   0.0000000   0.0000000   0.0000000   0.0000000   0.0000000   0.0000000   0.0000000   0.0000000
 NMagM=    2.7928460   0.0000000   2.7928460   2.7928460   0.0000000   2.7928460   2.7928460   0.0000000   2.7928460   2.7928460
 AtZNuc=   1.0000000   8.0000000   1.0000000   1.0000000   8.0000000   1.0000000   1.0000000   8.0000000   1.0000000   1.0000000

  Atom        21          22          23          24          25          26          27          28          29          30
 IAtWgt=          16           1           1          16           1           1          16           1           1          16
 AtmWgt=  15.9949146   1.0078250   1.0078250  15.9949146   1.0078250   1.0078250  15.9949146   1.0078250   1.0078250  15.9949146
 NucSpn=           0           1           1           0           1           1           0           1           1           0
 AtZEff=   0.0000000   0.0000000   0.0000000   0.0000000   0.0000000   0.0000000   0.0000000   0.0000000   0.0000000   0.0000000
 NQMom=    0.0000000   0.0000000   0.0000000   0.0000000   0.0000000   0.0000000   0.0000000   0.0000000   0.0000000   0.0000000
 NMagM=    0.0000000   2.7928460   2.7928460   0.0000000   2.7928460   2.7928460   0.0000000   2.7928460   2.7928460   0.0000000
 AtZNuc=   8.0000000   1.0000000   1.0000000   8.0000000   1.0000000   1.0000000   8.0000000   1.0000000   1.0000000   8.0000000

  Atom        31          32          33          34          35          36          37          38          39          40
 IAtWgt=           1           1          16           1           1          16           1           1          16           1
 AtmWgt=   1.0078250   1.0078250  15.9949146   1.0078250   1.0078250  15.9949146   1.0078250   1.0078250  15.9949146   1.0078250
 NucSpn=           1           1           0           1           1           0           1           1           0           1
 AtZEff=   0.0000000   0.0000000   0.0000000   0.0000000   0.0000000   0.0000000   0.0000000   0.0000000   0.0000000   0.0000000
 NQMom=    0.0000000   0.0000000   0.0000000   0.0000000   0.0000000   0.0000000   0.0000000   0.0000000   0.0000000   0.0000000
 NMagM=    2.7928460   2.7928460   0.0000000   2.7928460   2.7928460   0.0000000   2.7928460   2.7928460   0.0000000   2.7928460
 AtZNuc=   1.0000000   1.0000000   8.0000000   1.0000000   1.0000000   8.0000000   1.0000000   1.0000000   8.0000000   1.0000000

  Atom        41          42          43          44          45          46          47          48          49          50
 IAtWgt=           1          16           1           1          16           1           1          16           1           1
 AtmWgt=   1.0078250  15.9949146   1.0078250   1.0078250  15.9949146   1.0078250   1.0078250  15.9949146   1.0078250   1.0078250
 NucSpn=           1           0           1           1           0           1           1           0           1           1
 AtZEff=   0.0000000   0.0000000   0.0000000   0.0000000   0.0000000   0.0000000   0.0000000   0.0000000   0.0000000   0.0000000
 NQMom=    0.0000000   0.0000000   0.0000000   0.0000000   0.0000000   0.0000000   0.0000000   0.0000000   0.0000000   0.0000000
 NMagM=    2.7928460   0.0000000   2.7928460   2.7928460   0.0000000   2.7928460   2.7928460   0.0000000   2.7928460   2.7928460
 AtZNuc=   1.0000000   8.0000000   1.0000000   1.0000000   8.0000000   1.0000000   1.0000000   8.0000000   1.0000000   1.0000000
 Background charge distribution read from input stream:
 Point Charges:
 XYZ=    3.8324   -4.6606   -3.0354 Q=   -0.8200 A=    0.0000 R=    0.0000 C=    0.0000
 XYZ=    3.5669   -3.8369   -2.5343 Q=    0.4100 A=    0.0000 R=    0.0000 C=    0.0000
 XYZ=    3.8966   -4.4509   -4.0111 Q=    0.4100 A=    0.0000 R=    0.0000 C=    0.0000
 XYZ=    6.2181    0.4845    1.2644 Q=   -0.8200 A=    0.0000 R=    0.0000 C=    0.0000
 XYZ=    5.4746    1.1332    1.1020 Q=    0.4100 A=    0.0000 R=    0.0000 C=    0.0000
 XYZ=    5.8354   -0.4086    1.5010 Q=    0.4100 A=    0.0000 R=    0.0000 C=    0.0000
 XYZ=    5.0495   -1.7038    1.7770 Q=   -0.8200 A=    0.0000 R=    0.0000 C=    0.0000
 XYZ=    4.9327   -1.9758    0.8218 Q=    0.4100 A=    0.0000 R=    0.0000 C=    0.0000
 XYZ=    5.1278   -2.5205    2.3488 Q=    0.4100 A=    0.0000 R=    0.0000 C=    0.0000
 XYZ=    3.6247   -0.9197    3.6060 Q=   -0.8200 A=    0.0000 R=    0.0000 C=    0.0000
 XYZ=    3.7960   -0.0530    4.0746 Q=    0.4100 A=    0.0000 R=    0.0000 C=    0.0000
 XYZ=    4.1139   -0.9293    2.7339 Q=    0.4100 A=    0.0000 R=    0.0000 C=    0.0000
 XYZ=   -5.5996   -0.9525    3.6242 Q=   -0.8200 A=    0.0000 R=    0.0000 C=    0.0000
 XYZ=   -4.6701   -0.6863    3.8795 Q=    0.4100 A=    0.0000 R=    0.0000 C=    0.0000
 XYZ=   -5.6951   -1.9450    3.7013 Q=    0.4100 A=    0.0000 R=    0.0000 C=    0.0000
 XYZ=    1.4930   -4.5724    1.8375 Q=   -0.8200 A=    0.0000 R=    0.0000 C=    0.0000
 XYZ=    0.8195   -3.8352    1.8909 Q=    0.4100 A=    0.0000 R=    0.0000 C=    0.0000
 XYZ=    1.6475   -4.9495    2.7507 Q=    0.4100 A=    0.0000 R=    0.0000 C=    0.0000
 XYZ=    4.6537   -2.8266   -0.3751 Q=   -0.8200 A=    0.0000 R=    0.0000 C=    0.0000
 XYZ=    4.0317   -3.4849    0.0489 Q=    0.4100 A=    0.0000 R=    0.0000 C=    0.0000
 XYZ=    5.5028   -3.2881   -0.6322 Q=    0.4100 A=    0.0000 R=    0.0000 C=    0.0000
 XYZ=    3.1133   -0.8169   -6.9564 Q=   -0.8200 A=    0.0000 R=    0.0000 C=    0.0000
 XYZ=    3.0963   -1.4781   -6.2064 Q=    0.4100 A=    0.0000 R=    0.0000 C=    0.0000
 XYZ=    2.6180    0.0083   -6.6845 Q=    0.4100 A=    0.0000 R=    0.0000 C=    0.0000
 XYZ=   -0.9566    4.7223   -0.4986 Q=   -0.8200 A=    0.0000 R=    0.0000 C=    0.0000
 XYZ=   -0.4179    5.5119   -0.7925 Q=    0.4100 A=    0.0000 R=    0.0000 C=    0.0000
 XYZ=   -1.9289    4.9131   -0.6340 Q=    0.4100 A=    0.0000 R=    0.0000 C=    0.0000
 XYZ=    5.3608    3.4743    2.6078 Q=   -0.8200 A=    0.0000 R=    0.0000 C=    0.0000
 XYZ=    4.8382    4.2147    3.0304 Q=    0.4100 A=    0.0000 R=    0.0000 C=    0.0000
 XYZ=    4.9580    3.2458    1.7215 Q=    0.4100 A=    0.0000 R=    0.0000 C=    0.0000
 XYZ=    2.2715    5.6184    2.3699 Q=   -0.8200 A=    0.0000 R=    0.0000 C=    0.0000
 XYZ=    1.7116    4.9494    1.8812 Q=    0.4100 A=    0.0000 R=    0.0000 C=    0.0000
 XYZ=    2.6748    6.2576    1.7150 Q=    0.4100 A=    0.0000 R=    0.0000 C=    0.0000
 XYZ=    4.2075   -4.0682   -5.3543 Q=   -0.8200 A=    0.0000 R=    0.0000 C=    0.0000
 XYZ=    4.3921   -3.2616   -4.7926 Q=    0.4100 A=    0.0000 R=    0.0000 C=    0.0000
 XYZ=    4.9162   -4.1561   -6.0543 Q=    0.4100 A=    0.0000 R=    0.0000 C=    0.0000
 XYZ=    7.2494    1.8227   -0.3824 Q=   -0.8200 A=    0.0000 R=    0.0000 C=    0.0000
 XYZ=    6.4885    2.2607   -0.8611 Q=    0.4100 A=    0.0000 R=    0.0000 C=    0.0000
 XYZ=    6.9058    1.3550    0.4320 Q=    0.4100 A=    0.0000 R=    0.0000 C=    0.0000
 XYZ=    3.4499   -4.5673    0.5906 Q=   -0.8200 A=    0.0000 R=    0.0000 C=    0.0000
 XYZ=    2.5496   -4.5470    1.0255 Q=    0.4100 A=    0.0000 R=    0.0000 C=    0.0000
 XYZ=    3.5026   -5.3496   -0.0302 Q=    0.4100 A=    0.0000 R=    0.0000 C=    0.0000
 XYZ=   -7.2399   -1.2500    1.8866 Q=   -0.8200 A=    0.0000 R=    0.0000 C=    0.0000
 XYZ=   -6.6070   -1.1975    2.6590 Q=    0.4100 A=    0.0000 R=    0.0000 C=    0.0000
 XYZ=   -7.4872   -2.2050    1.7227 Q=    0.4100 A=    0.0000 R=    0.0000 C=    0.0000
 XYZ=   -1.2249   -1.6352    7.0096 Q=   -0.8200 A=    0.0000 R=    0.0000 C=    0.0000
 XYZ=   -0.6439   -1.0219    6.4744 Q=    0.4100 A=    0.0000 R=    0.0000 C=    0.0000
 XYZ=   -2.0221   -1.8979    6.4659 Q=    0.4100 A=    0.0000 R=    0.0000 C=    0.0000
 XYZ=    2.8552    5.6151   -0.8481 Q=   -0.8200 A=    0.0000 R=    0.0000 C=    0.0000
 XYZ=    3.1165    6.3537   -0.2266 Q=    0.4100 A=    0.0000 R=    0.0000 C=    0.0000
 XYZ=    3.6509    5.3337   -1.3844 Q=    0.4100 A=    0.0000 R=    0.0000 C=    0.0000
 XYZ=    2.5380   -2.4919    6.4105 Q=   -0.8200 A=    0.0000 R=    0.0000 C=    0.0000
 XYZ=    2.2153   -2.1361    5.5334 Q=    0.4100 A=    0.0000 R=    0.0000 C=    0.0000
 XYZ=    2.6605   -1.7350    7.0525 Q=    0.4100 A=    0.0000 R=    0.0000 C=    0.0000
 XYZ=   -1.0601   -4.3500    4.2326 Q=   -0.8200 A=    0.0000 R=    0.0000 C=    0.0000
 XYZ=   -1.4172   -5.1018    3.6783 Q=    0.4100 A=    0.0000 R=    0.0000 C=    0.0000
 XYZ=   -0.2938   -4.6780    4.7851 Q=    0.4100 A=    0.0000 R=    0.0000 C=    0.0000
 XYZ=   -3.4268    2.2534   -5.2107 Q=   -0.8200 A=    0.0000 R=    0.0000 C=    0.0000
 XYZ=   -3.2029    3.0904   -4.7115 Q=    0.4100 A=    0.0000 R=    0.0000 C=    0.0000
 XYZ=   -3.3750    2.4279   -6.1941 Q=    0.4100 A=    0.0000 R=    0.0000 C=    0.0000
 XYZ=   -3.3721    5.4762    2.0582 Q=   -0.8200 A=    0.0000 R=    0.0000 C=    0.0000
 XYZ=   -4.2813    5.0880    2.2093 Q=    0.4100 A=    0.0000 R=    0.0000 C=    0.0000
 XYZ=   -2.7297    5.0873    2.7185 Q=    0.4100 A=    0.0000 R=    0.0000 C=    0.0000
 XYZ=    4.3803   -2.6257    4.8335 Q=   -0.8200 A=    0.0000 R=    0.0000 C=    0.0000
 XYZ=    4.0175   -1.8932    4.2574 Q=    0.4100 A=    0.0000 R=    0.0000 C=    0.0000
 XYZ=    3.7186   -2.8445    5.5506 Q=    0.4100 A=    0.0000 R=    0.0000 C=    0.0000
 XYZ=    2.9515   -6.1909   -1.1852 Q=   -0.8200 A=    0.0000 R=    0.0000 C=    0.0000
 XYZ=    3.6880   -6.8592   -1.0800 Q=    0.4100 A=    0.0000 R=    0.0000 C=    0.0000
 XYZ=    3.1675   -5.5731   -1.9414 Q=    0.4100 A=    0.0000 R=    0.0000 C=    0.0000
 XYZ=    4.6640    4.8488   -2.0353 Q=   -0.8200 A=    0.0000 R=    0.0000 C=    0.0000
 XYZ=    5.5780    5.0760   -1.6992 Q=    0.4100 A=    0.0000 R=    0.0000 C=    0.0000
 XYZ=    4.6797    4.7955   -3.0337 Q=    0.4100 A=    0.0000 R=    0.0000 C=    0.0000
 XYZ=   -7.7166    0.3705   -0.3745 Q=   -0.8200 A=    0.0000 R=    0.0000 C=    0.0000
 XYZ=   -7.2539   -0.1204   -1.1128 Q=    0.4100 A=    0.0000 R=    0.0000 C=    0.0000
 XYZ=   -7.3910    0.0296    0.5075 Q=    0.4100 A=    0.0000 R=    0.0000 C=    0.0000
 XYZ=    6.3238    0.6506   -4.7753 Q=   -0.8200 A=    0.0000 R=    0.0000 C=    0.0000
 XYZ=    6.7424    1.5553   -4.6952 Q=    0.4100 A=    0.0000 R=    0.0000 C=    0.0000
 XYZ=    7.0400   -0.0403   -4.8741 Q=    0.4100 A=    0.0000 R=    0.0000 C=    0.0000
 XYZ=    4.3984    0.8302    5.0926 Q=   -0.8200 A=    0.0000 R=    0.0000 C=    0.0000
 XYZ=    4.8045    0.3313    5.8583 Q=    0.4100 A=    0.0000 R=    0.0000 C=    0.0000
 XYZ=    3.6998    1.4576    5.4367 Q=    0.4100 A=    0.0000 R=    0.0000 C=    0.0000
 XYZ=   -2.9311    4.2952   -4.1545 Q=   -0.8200 A=    0.0000 R=    0.0000 C=    0.0000
 XYZ=   -2.4172    4.3089   -3.2968 Q=    0.4100 A=    0.0000 R=    0.0000 C=    0.0000
 XYZ=   -3.8725    4.5863   -3.9836 Q=    0.4100 A=    0.0000 R=    0.0000 C=    0.0000
 XYZ=    5.3595   -0.1993   -7.0061 Q=   -0.8200 A=    0.0000 R=    0.0000 C=    0.0000
 XYZ=    5.6587    0.0656   -6.0894 Q=    0.4100 A=    0.0000 R=    0.0000 C=    0.0000
 XYZ=    4.4018   -0.4856   -6.9743 Q=    0.4100 A=    0.0000 R=    0.0000 C=    0.0000
 XYZ=    1.1629   -6.2537    0.3078 Q=   -0.8200 A=    0.0000 R=    0.0000 C=    0.0000
 XYZ=    1.2449   -5.5484    1.0119 Q=    0.4100 A=    0.0000 R=    0.0000 C=    0.0000
 XYZ=    1.9201   -6.1679   -0.3398 Q=    0.4100 A=    0.0000 R=    0.0000 C=    0.0000
 XYZ=   -5.5515    1.4759   -5.0162 Q=   -0.8200 A=    0.0000 R=    0.0000 C=    0.0000
 XYZ=   -5.5938    0.4947   -4.8277 Q=    0.4100 A=    0.0000 R=    0.0000 C=    0.0000
 XYZ=   -4.5954    1.7659   -5.0604 Q=    0.4100 A=    0.0000 R=    0.0000 C=    0.0000
 XYZ=   -5.6576    0.3230    5.5380 Q=   -0.8200 A=    0.0000 R=    0.0000 C=    0.0000
 XYZ=   -4.6635    0.3755    5.6327 Q=    0.4100 A=    0.0000 R=    0.0000 C=    0.0000
 XYZ=   -5.8868   -0.1223    4.6724 Q=    0.4100 A=    0.0000 R=    0.0000 C=    0.0000
 XYZ=   -5.3564    4.4024   -1.1032 Q=   -0.8200 A=    0.0000 R=    0.0000 C=    0.0000
 XYZ=   -5.7043    5.0990   -0.4757 Q=    0.4100 A=    0.0000 R=    0.0000 C=    0.0000
 XYZ=   -5.7681    3.5185   -0.8814 Q=    0.4100 A=    0.0000 R=    0.0000 C=    0.0000
 XYZ=   -4.0182   -5.9688    2.2156 Q=   -0.8200 A=    0.0000 R=    0.0000 C=    0.0000
 XYZ=   -4.1318   -6.9491    2.0542 Q=    0.4100 A=    0.0000 R=    0.0000 C=    0.0000
 XYZ=   -4.3555   -5.4593    1.4240 Q=    0.4100 A=    0.0000 R=    0.0000 C=    0.0000
 XYZ=    7.6790   -0.4722   -1.0822 Q=   -0.8200 A=    0.0000 R=    0.0000 C=    0.0000
 XYZ=    7.4755    0.4886   -0.8937 Q=    0.4100 A=    0.0000 R=    0.0000 C=    0.0000
 XYZ=    8.2198   -0.8518   -0.3316 Q=    0.4100 A=    0.0000 R=    0.0000 C=    0.0000
 XYZ=   -1.8733   -5.9737    2.9407 Q=   -0.8200 A=    0.0000 R=    0.0000 C=    0.0000
 XYZ=   -1.4235   -6.4660    2.1954 Q=    0.4100 A=    0.0000 R=    0.0000 C=    0.0000
 XYZ=   -2.8149   -5.7613    2.6793 Q=    0.4100 A=    0.0000 R=    0.0000 C=    0.0000
 XYZ=    5.8414   -5.3952   -2.2933 Q=   -0.8200 A=    0.0000 R=    0.0000 C=    0.0000
 XYZ=    5.0255   -4.9725   -2.6880 Q=    0.4100 A=    0.0000 R=    0.0000 C=    0.0000
 XYZ=    6.5808   -5.3853   -2.9666 Q=    0.4100 A=    0.0000 R=    0.0000 C=    0.0000
 XYZ=    1.4995    0.7511    7.2104 Q=   -0.8200 A=    0.0000 R=    0.0000 C=    0.0000
 XYZ=    2.1680    0.0832    7.5375 Q=    0.4100 A=    0.0000 R=    0.0000 C=    0.0000
 XYZ=    1.9762    1.5676    6.8846 Q=    0.4100 A=    0.0000 R=    0.0000 C=    0.0000
 XYZ=    0.5828    6.5592   -0.9908 Q=   -0.8200 A=    0.0000 R=    0.0000 C=    0.0000
 XYZ=    1.5157    6.3225   -1.2625 Q=    0.4100 A=    0.0000 R=    0.0000 C=    0.0000
 XYZ=    0.1170    7.0073   -1.7540 Q=    0.4100 A=    0.0000 R=    0.0000 C=    0.0000
 XYZ=   -3.3140    5.4024   -0.3855 Q=   -0.8200 A=    0.0000 R=    0.0000 C=    0.0000
 XYZ=   -4.1563    5.0014   -0.7456 Q=    0.4100 A=    0.0000 R=    0.0000 C=    0.0000
 XYZ=   -3.3800    5.4787    0.6094 Q=    0.4100 A=    0.0000 R=    0.0000 C=    0.0000
 XYZ=   -3.0849   -4.5405    5.5303 Q=   -0.8200 A=    0.0000 R=    0.0000 C=    0.0000
 XYZ=   -2.2851   -4.6072    4.9337 Q=    0.4100 A=    0.0000 R=    0.0000 C=    0.0000
 XYZ=   -3.0838   -5.3045    6.1757 Q=    0.4100 A=    0.0000 R=    0.0000 C=    0.0000
 XYZ=    3.0620    2.2461    6.2417 Q=   -0.8200 A=    0.0000 R=    0.0000 C=    0.0000
 XYZ=    3.7001    2.1427    7.0047 Q=    0.4100 A=    0.0000 R=    0.0000 C=    0.0000
 XYZ=    3.0680    3.1958    5.9286 Q=    0.4100 A=    0.0000 R=    0.0000 C=    0.0000
 XYZ=   -3.4157   -2.2759    6.2502 Q=   -0.8200 A=    0.0000 R=    0.0000 C=    0.0000
 XYZ=   -4.0295   -2.1346    7.0269 Q=    0.4100 A=    0.0000 R=    0.0000 C=    0.0000
 XYZ=   -3.2250   -3.2525    6.1495 Q=    0.4100 A=    0.0000 R=    0.0000 C=    0.0000
 XYZ=    2.2663    5.2231   -4.6921 Q=   -0.8200 A=    0.0000 R=    0.0000 C=    0.0000
 XYZ=    1.9695    6.1386   -4.4203 Q=    0.4100 A=    0.0000 R=    0.0000 C=    0.0000
 XYZ=    3.2383    5.1126   -4.4848 Q=    0.4100 A=    0.0000 R=    0.0000 C=    0.0000
 XYZ=    8.3489    0.5494    2.1728 Q=   -0.8200 A=    0.0000 R=    0.0000 C=    0.0000
 XYZ=    8.2281    0.8588    3.1160 Q=    0.4100 A=    0.0000 R=    0.0000 C=    0.0000
 XYZ=    7.4534    0.3876    1.7579 Q=    0.4100 A=    0.0000 R=    0.0000 C=    0.0000
 XYZ=    6.2672    2.0273    4.2173 Q=   -0.8200 A=    0.0000 R=    0.0000 C=    0.0000
 XYZ=    5.8480    2.6211    3.5306 Q=    0.4100 A=    0.0000 R=    0.0000 C=    0.0000
 XYZ=    5.5635    1.4529    4.6356 Q=    0.4100 A=    0.0000 R=    0.0000 C=    0.0000
 XYZ=   -6.2534   -3.3053    3.9910 Q=   -0.8200 A=    0.0000 R=    0.0000 C=    0.0000
 XYZ=   -6.8144   -3.0703    4.7848 Q=    0.4100 A=    0.0000 R=    0.0000 C=    0.0000
 XYZ=   -5.7856   -4.1731    4.1588 Q=    0.4100 A=    0.0000 R=    0.0000 C=    0.0000
 XYZ=   -7.4636    2.7351   -0.6874 Q=   -0.8200 A=    0.0000 R=    0.0000 C=    0.0000
 XYZ=   -7.6061    1.7540   -0.5562 Q=    0.4100 A=    0.0000 R=    0.0000 C=    0.0000
 XYZ=   -7.6897    2.9816   -1.6298 Q=    0.4100 A=    0.0000 R=    0.0000 C=    0.0000
 XYZ=   -0.4417    5.8133   -4.7744 Q=   -0.8200 A=    0.0000 R=    0.0000 C=    0.0000
 XYZ=   -1.2203    5.5595   -5.3484 Q=    0.4100 A=    0.0000 R=    0.0000 C=    0.0000
 XYZ=    0.3381    5.2262   -4.9919 Q=    0.4100 A=    0.0000 R=    0.0000 C=    0.0000
 XYZ=   -7.3760   -3.6910    1.9036 Q=   -0.8200 A=    0.0000 R=    0.0000 C=    0.0000
 XYZ=   -6.8209   -4.1465    1.2075 Q=    0.4100 A=    0.0000 R=    0.0000 C=    0.0000
 XYZ=   -6.8290   -3.5553    2.7297 Q=    0.4100 A=    0.0000 R=    0.0000 C=    0.0000
 XYZ=    4.1880    5.2250    3.6632 Q=   -0.8200 A=    0.0000 R=    0.0000 C=    0.0000
 XYZ=    3.8438    4.9713    4.5672 Q=    0.4100 A=    0.0000 R=    0.0000 C=    0.0000
 XYZ=    3.4188    5.4485    3.0644 Q=    0.4100 A=    0.0000 R=    0.0000 C=    0.0000
 XYZ=    5.3438   -3.4847    3.0285 Q=   -0.8200 A=    0.0000 R=    0.0000 C=    0.0000
 XYZ=    5.1192   -3.1680    3.9500 Q=    0.4100 A=    0.0000 R=    0.0000 C=    0.0000
 XYZ=    5.0656   -4.4398    2.9272 Q=    0.4100 A=    0.0000 R=    0.0000 C=    0.0000
 XYZ=    2.4802    2.4882   -7.7995 Q=   -0.8200 A=    0.0000 R=    0.0000 C=    0.0000
 XYZ=    3.4575    2.3622   -7.6286 Q=    0.4100 A=    0.0000 R=    0.0000 C=    0.0000
 XYZ=    2.2976    2.3897   -8.7777 Q=    0.4100 A=    0.0000 R=    0.0000 C=    0.0000
 XYZ=    3.0414   -5.3685   -7.0516 Q=   -0.8200 A=    0.0000 R=    0.0000 C=    0.0000
 XYZ=    3.5745   -5.2175   -7.8841 Q=    0.4100 A=    0.0000 R=    0.0000 C=    0.0000
 XYZ=    3.3530   -4.7410   -6.3380 Q=    0.4100 A=    0.0000 R=    0.0000 C=    0.0000
 XYZ=   -7.6064    3.1386    1.7328 Q=   -0.8200 A=    0.0000 R=    0.0000 C=    0.0000
 XYZ=   -6.7161    3.5741    1.8658 Q=    0.4100 A=    0.0000 R=    0.0000 C=    0.0000
 XYZ=   -7.7183    2.8961    0.7691 Q=    0.4100 A=    0.0000 R=    0.0000 C=    0.0000
 XYZ=    7.7746   -1.1804   -4.7784 Q=   -0.8200 A=    0.0000 R=    0.0000 C=    0.0000
 XYZ=    8.5681   -1.1764   -4.1697 Q=    0.4100 A=    0.0000 R=    0.0000 C=    0.0000
 XYZ=    7.1689   -1.9368   -4.5314 Q=    0.4100 A=    0.0000 R=    0.0000 C=    0.0000
 XYZ=    4.6528    2.1163   -7.2521 Q=   -0.8200 A=    0.0000 R=    0.0000 C=    0.0000
 XYZ=    5.0599    2.7261   -6.5720 Q=    0.4100 A=    0.0000 R=    0.0000 C=    0.0000
 XYZ=    5.1185    1.2316   -7.2277 Q=    0.4100 A=    0.0000 R=    0.0000 C=    0.0000
 XYZ=    4.3567   -5.6567    2.5765 Q=   -0.8200 A=    0.0000 R=    0.0000 C=    0.0000
 XYZ=    4.1148   -5.1951    1.7230 Q=    0.4100 A=    0.0000 R=    0.0000 C=    0.0000
 XYZ=    3.5921   -5.5932    3.2180 Q=    0.4100 A=    0.0000 R=    0.0000 C=    0.0000
 XYZ=   -6.2443   -5.0152    0.0786 Q=   -0.8200 A=    0.0000 R=    0.0000 C=    0.0000
 XYZ=   -6.6913   -4.8697   -0.8041 Q=    0.4100 A=    0.0000 R=    0.0000 C=    0.0000
 XYZ=   -6.1742   -5.9963    0.2590 Q=    0.4100 A=    0.0000 R=    0.0000 C=    0.0000
 XYZ=   -0.9640   -6.9145    1.2114 Q=   -0.8200 A=    0.0000 R=    0.0000 C=    0.0000
 XYZ=   -0.0741   -6.8565    0.7588 Q=    0.4100 A=    0.0000 R=    0.0000 C=    0.0000
 XYZ=   -1.5543   -7.5443    0.7064 Q=    0.4100 A=    0.0000 R=    0.0000 C=    0.0000
 XYZ=    6.6417   -3.9112   -0.6658 Q=   -0.8200 A=    0.0000 R=    0.0000 C=    0.0000
 XYZ=    7.6389   -3.8856   -0.7365 Q=    0.4100 A=    0.0000 R=    0.0000 C=    0.0000
 XYZ=    6.2874   -4.6632   -1.2217 Q=    0.4100 A=    0.0000 R=    0.0000 C=    0.0000
 XYZ=    0.4855   -3.4605    7.1150 Q=   -0.8200 A=    0.0000 R=    0.0000 C=    0.0000
 XYZ=    1.4009   -3.1371    6.8752 Q=    0.4100 A=    0.0000 R=    0.0000 C=    0.0000
 XYZ=   -0.1554   -2.6932    7.0931 Q=    0.4100 A=    0.0000 R=    0.0000 C=    0.0000
 XYZ=   -5.0129   -5.2369    4.2892 Q=   -0.8200 A=    0.0000 R=    0.0000 C=    0.0000
 XYZ=   -4.2521   -4.8363    4.7999 Q=    0.4100 A=    0.0000 R=    0.0000 C=    0.0000
 XYZ=   -4.6568   -5.7485    3.5072 Q=    0.4100 A=    0.0000 R=    0.0000 C=    0.0000
 XYZ=    1.4684    4.5447   -6.9522 Q=   -0.8200 A=    0.0000 R=    0.0000 C=    0.0000
 XYZ=    1.9550    4.9480   -6.1772 Q=    0.4100 A=    0.0000 R=    0.0000 C=    0.0000
 XYZ=    1.9972    3.7773   -7.3149 Q=    0.4100 A=    0.0000 R=    0.0000 C=    0.0000
 XYZ=    3.1435   -1.3247   -9.4048 Q=   -0.8200 A=    0.0000 R=    0.0000 C=    0.0000
 XYZ=    3.2945   -1.3076   -8.4164 Q=    0.4100 A=    0.0000 R=    0.0000 C=    0.0000
 XYZ=    3.8959   -1.8115   -9.8486 Q=    0.4100 A=    0.0000 R=    0.0000 C=    0.0000
 XYZ=    4.6467    5.0304   -4.3457 Q=   -0.8200 A=    0.0000 R=    0.0000 C=    0.0000
 XYZ=    5.0861    5.9280   -4.3813 Q=    0.4100 A=    0.0000 R=    0.0000 C=    0.0000
 XYZ=    4.9381    4.4853   -5.1318 Q=    0.4100 A=    0.0000 R=    0.0000 C=    0.0000
 XYZ=    0.9991    7.0319    4.0921 Q=   -0.8200 A=    0.0000 R=    0.0000 C=    0.0000
 XYZ=    0.3754    7.6230    3.5807 Q=    0.4100 A=    0.0000 R=    0.0000 C=    0.0000
 XYZ=    1.5665    6.5132    3.4524 Q=    0.4100 A=    0.0000 R=    0.0000 C=    0.0000
 XYZ=   -5.8042    4.7634    2.0617 Q=   -0.8200 A=    0.0000 R=    0.0000 C=    0.0000
 XYZ=   -6.2343    5.3583    1.3827 Q=    0.4100 A=    0.0000 R=    0.0000 C=    0.0000
 XYZ=   -6.1227    5.0159    2.9754 Q=    0.4100 A=    0.0000 R=    0.0000 C=    0.0000
 XYZ=   -5.0830    4.8324   -3.3220 Q=   -0.8200 A=    0.0000 R=    0.0000 C=    0.0000
 XYZ=   -5.1799    4.5287   -2.3741 Q=    0.4100 A=    0.0000 R=    0.0000 C=    0.0000
 XYZ=   -5.8152    4.4357   -3.8756 Q=    0.4100 A=    0.0000 R=    0.0000 C=    0.0000
 XYZ=    3.2302    4.4595    5.6354 Q=   -0.8200 A=    0.0000 R=    0.0000 C=    0.0000
 XYZ=    3.9163    4.7770    6.2901 Q=    0.4100 A=    0.0000 R=    0.0000 C=    0.0000
 XYZ=    2.3553    4.9041    5.8276 Q=    0.4100 A=    0.0000 R=    0.0000 C=    0.0000
 XYZ=   -2.1248    4.8511   -6.2684 Q=   -0.8200 A=    0.0000 R=    0.0000 C=    0.0000
 XYZ=   -2.3039    4.5286   -5.3389 Q=    0.4100 A=    0.0000 R=    0.0000 C=    0.0000
 XYZ=   -2.9694    5.2111   -6.6648 Q=    0.4100 A=    0.0000 R=    0.0000 C=    0.0000
 XYZ=    5.7752    3.5973   -5.7503 Q=   -0.8200 A=    0.0000 R=    0.0000 C=    0.0000
 XYZ=    6.2293    4.2695   -6.3351 Q=    0.4100 A=    0.0000 R=    0.0000 C=    0.0000
 XYZ=    6.3949    3.3223   -5.0153 Q=    0.4100 A=    0.0000 R=    0.0000 C=    0.0000
 XYZ=    0.3163    2.4092    8.5546 Q=   -0.8200 A=    0.0000 R=    0.0000 C=    0.0000
 XYZ=    0.6595    1.6190    8.0467 Q=    0.4100 A=    0.0000 R=    0.0000 C=    0.0000
 XYZ=   -0.6743    2.3289    8.6663 Q=    0.4100 A=    0.0000 R=    0.0000 C=    0.0000
 XYZ=    7.4132    4.5450    2.9199 Q=   -0.8200 A=    0.0000 R=    0.0000 C=    0.0000
 XYZ=    7.7393    4.3166    3.8373 Q=    0.4100 A=    0.0000 R=    0.0000 C=    0.0000
 XYZ=    6.5561    4.0619    2.7411 Q=    0.4100 A=    0.0000 R=    0.0000 C=    0.0000
 XYZ=   -2.3519   -1.0316   -9.1432 Q=   -0.8200 A=    0.0000 R=    0.0000 C=    0.0000
 XYZ=   -2.2788   -1.7050   -9.8788 Q=    0.4100 A=    0.0000 R=    0.0000 C=    0.0000
 XYZ=   -2.3704   -1.5023   -8.2611 Q=    0.4100 A=    0.0000 R=    0.0000 C=    0.0000
 XYZ=   -9.2588   -0.3804    2.8862 Q=   -0.8200 A=    0.0000 R=    0.0000 C=    0.0000
 XYZ=   -8.4402   -0.7960    2.4898 Q=    0.4100 A=    0.0000 R=    0.0000 C=    0.0000
 XYZ=   -9.0714    0.5757    3.1117 Q=    0.4100 A=    0.0000 R=    0.0000 C=    0.0000
 XYZ=    8.6766    3.7751   -0.4611 Q=   -0.8200 A=    0.0000 R=    0.0000 C=    0.0000
 XYZ=    8.1377    2.9328   -0.4552 Q=    0.4100 A=    0.0000 R=    0.0000 C=    0.0000
 XYZ=    8.9481    4.0036    0.4739 Q=    0.4100 A=    0.0000 R=    0.0000 C=    0.0000
 XYZ=    0.6611   -5.2619    5.5801 Q=   -0.8200 A=    0.0000 R=    0.0000 C=    0.0000
 XYZ=    0.0682   -6.0331    5.8119 Q=    0.4100 A=    0.0000 R=    0.0000 C=    0.0000
 XYZ=    0.4592   -4.4924    6.1860 Q=    0.4100 A=    0.0000 R=    0.0000 C=    0.0000
 XYZ=    7.2876    2.9619   -4.0807 Q=   -0.8200 A=    0.0000 R=    0.0000 C=    0.0000
 XYZ=    7.5942    3.9064   -3.9624 Q=    0.4100 A=    0.0000 R=    0.0000 C=    0.0000
 XYZ=    7.8169    2.3621   -3.4805 Q=    0.4100 A=    0.0000 R=    0.0000 C=    0.0000
 XYZ=    2.3476   -5.6055    3.8374 Q=   -0.8200 A=    0.0000 R=    0.0000 C=    0.0000
 XYZ=    1.9013   -5.3415    4.6925 Q=    0.4100 A=    0.0000 R=    0.0000 C=    0.0000
 XYZ=    2.2278   -6.5871    3.6882 Q=    0.4100 A=    0.0000 R=    0.0000 C=    0.0000
 XYZ=    1.2432    5.5940    5.9806 Q=   -0.8200 A=    0.0000 R=    0.0000 C=    0.0000
 XYZ=    1.1205    6.2014    5.1956 Q=    0.4100 A=    0.0000 R=    0.0000 C=    0.0000
 XYZ=    0.5536    5.8025    6.6742 Q=    0.4100 A=    0.0000 R=    0.0000 C=    0.0000
 XYZ=    1.0702    7.9779    0.7707 Q=   -0.8200 A=    0.0000 R=    0.0000 C=    0.0000
 XYZ=    0.4522    7.8684    1.5492 Q=    0.4100 A=    0.0000 R=    0.0000 C=    0.0000
 XYZ=    0.8029    7.3475    0.0418 Q=    0.4100 A=    0.0000 R=    0.0000 C=    0.0000
 XYZ=   -6.7162    3.6039   -4.3683 Q=   -0.8200 A=    0.0000 R=    0.0000 C=    0.0000
 XYZ=   -7.0151    3.9438   -5.2601 Q=    0.4100 A=    0.0000 R=    0.0000 C=    0.0000
 XYZ=   -6.2293    2.7386   -4.4876 Q=    0.4100 A=    0.0000 R=    0.0000 C=    0.0000
 XYZ=    3.4555    7.1265    0.8655 Q=   -0.8200 A=    0.0000 R=    0.0000 C=    0.0000
 XYZ=    2.6039    7.6508    0.8707 Q=    0.4100 A=    0.0000 R=    0.0000 C=    0.0000
 XYZ=    4.2073    7.7089    1.1746 Q=    0.4100 A=    0.0000 R=    0.0000 C=    0.0000
 XYZ=    7.4179   -4.2096    1.8526 Q=   -0.8200 A=    0.0000 R=    0.0000 C=    0.0000
 XYZ=    6.6621   -3.9739    2.4636 Q=    0.4100 A=    0.0000 R=    0.0000 C=    0.0000
 XYZ=    7.1454   -4.0413    0.9053 Q=    0.4100 A=    0.0000 R=    0.0000 C=    0.0000
 XYZ=   -7.7455    1.5475    5.6556 Q=   -0.8200 A=    0.0000 R=    0.0000 C=    0.0000
 XYZ=   -6.8267    1.1645    5.5605 Q=    0.4100 A=    0.0000 R=    0.0000 C=    0.0000
 XYZ=   -8.3207    0.9104    6.1689 Q=    0.4100 A=    0.0000 R=    0.0000 C=    0.0000
 XYZ=    9.4387   -0.6613   -2.6847 Q=   -0.8200 A=    0.0000 R=    0.0000 C=    0.0000
 XYZ=    8.6294   -0.5537   -2.1072 Q=    0.4100 A=    0.0000 R=    0.0000 C=    0.0000
 XYZ=   10.2530   -0.7293   -2.1081 Q=    0.4100 A=    0.0000 R=    0.0000 C=    0.0000
 XYZ=   -2.7733    7.3019   -1.8160 Q=   -0.8200 A=    0.0000 R=    0.0000 C=    0.0000
 XYZ=   -3.0073    6.5485   -1.2015 Q=    0.4100 A=    0.0000 R=    0.0000 C=    0.0000
 XYZ=   -2.4897    8.0955   -1.2776 Q=    0.4100 A=    0.0000 R=    0.0000 C=    0.0000
 XYZ=    0.7816   -5.0010   -7.9229 Q=   -0.8200 A=    0.0000 R=    0.0000 C=    0.0000
 XYZ=    0.3305   -5.8790   -7.7627 Q=    0.4100 A=    0.0000 R=    0.0000 C=    0.0000
 XYZ=    1.7261   -5.0474   -7.5976 Q=    0.4100 A=    0.0000 R=    0.0000 C=    0.0000
 XYZ=   -0.6090    7.2772   -2.8188 Q=   -0.8200 A=    0.0000 R=    0.0000 C=    0.0000
 XYZ=   -1.5444    7.3481   -2.4722 Q=    0.4100 A=    0.0000 R=    0.0000 C=    0.0000
 XYZ=   -0.5670    6.5672   -3.5218 Q=    0.4100 A=    0.0000 R=    0.0000 C=    0.0000
 XYZ=    6.9587    5.2816   -1.3986 Q=   -0.8200 A=    0.0000 R=    0.0000 C=    0.0000
 XYZ=    7.6332    4.7247   -0.9138 Q=    0.4100 A=    0.0000 R=    0.0000 C=    0.0000
 XYZ=    6.9312    6.1968   -0.9963 Q=    0.4100 A=    0.0000 R=    0.0000 C=    0.0000
 XYZ=   -6.4997   -1.3102    7.0750 Q=   -0.8200 A=    0.0000 R=    0.0000 C=    0.0000
 XYZ=   -6.0313   -0.5584    6.6108 Q=    0.4100 A=    0.0000 R=    0.0000 C=    0.0000
 XYZ=   -5.9513   -1.6142    7.8540 Q=    0.4100 A=    0.0000 R=    0.0000 C=    0.0000
 XYZ=    6.2511   -2.2963   -8.2557 Q=   -0.8200 A=    0.0000 R=    0.0000 C=    0.0000
 XYZ=    5.8844   -1.4646   -7.8388 Q=    0.4100 A=    0.0000 R=    0.0000 C=    0.0000
 XYZ=    6.0111   -3.0859   -7.6910 Q=    0.4100 A=    0.0000 R=    0.0000 C=    0.0000
 XYZ=   -2.3330   -1.3672    9.1222 Q=   -0.8200 A=    0.0000 R=    0.0000 C=    0.0000
 XYZ=   -1.7913   -1.3965    8.2821 Q=    0.4100 A=    0.0000 R=    0.0000 C=    0.0000
 XYZ=   -1.8613   -1.8781    9.8409 Q=    0.4100 A=    0.0000 R=    0.0000 C=    0.0000
 XYZ=   -8.6667    1.7219    3.5217 Q=   -0.8200 A=    0.0000 R=    0.0000 C=    0.0000
 XYZ=   -8.2209    2.4335    2.9786 Q=    0.4100 A=    0.0000 R=    0.0000 C=    0.0000
 XYZ=   -8.1905    1.6221    4.3953 Q=    0.4100 A=    0.0000 R=    0.0000 C=    0.0000
 XYZ=    9.0852   -1.0593    0.7634 Q=   -0.8200 A=    0.0000 R=    0.0000 C=    0.0000
 XYZ=    9.2770   -1.8644    1.3248 Q=    0.4100 A=    0.0000 R=    0.0000 C=    0.0000
 XYZ=    8.8104   -0.2997    1.3529 Q=    0.4100 A=    0.0000 R=    0.0000 C=    0.0000
 XYZ=   -6.0586    2.1014   -7.1810 Q=   -0.8200 A=    0.0000 R=    0.0000 C=    0.0000
 XYZ=   -6.6290    1.5215   -7.7627 Q=    0.4100 A=    0.0000 R=    0.0000 C=    0.0000
 XYZ=   -6.0286    1.7198   -6.2571 Q=    0.4100 A=    0.0000 R=    0.0000 C=    0.0000
 XYZ=    3.2858   -0.8505    7.8905 Q=   -0.8200 A=    0.0000 R=    0.0000 C=    0.0000
 XYZ=    3.4060   -0.9676    8.8763 Q=    0.4100 A=    0.0000 R=    0.0000 C=    0.0000
 XYZ=    4.1689   -0.6438    7.4693 Q=    0.4100 A=    0.0000 R=    0.0000 C=    0.0000
 XYZ=   -2.5386   -5.6218   -7.3415 Q=   -0.8200 A=    0.0000 R=    0.0000 C=    0.0000
 XYZ=   -1.6120   -5.9976   -7.3601 Q=    0.4100 A=    0.0000 R=    0.0000 C=    0.0000
 XYZ=   -3.0201   -5.9622   -6.5338 Q=    0.4100 A=    0.0000 R=    0.0000 C=    0.0000
 XYZ=   -7.0719   -5.0515   -2.5951 Q=   -0.8200 A=    0.0000 R=    0.0000 C=    0.0000
 XYZ=   -7.9810   -5.3393   -2.2938 Q=    0.4100 A=    0.0000 R=    0.0000 C=    0.0000
 XYZ=   -7.1589   -4.4488   -3.3883 Q=    0.4100 A=    0.0000 R=    0.0000 C=    0.0000
 XYZ=    5.0581   -7.1544   -0.7117 Q=   -0.8200 A=    0.0000 R=    0.0000 C=    0.0000
 XYZ=    5.8508   -7.5857   -0.2808 Q=    0.4100 A=    0.0000 R=    0.0000 C=    0.0000
 XYZ=    5.3586   -6.6157   -1.4989 Q=    0.4100 A=    0.0000 R=    0.0000 C=    0.0000
 XYZ=    5.7613   -4.1116   -6.9745 Q=   -0.8200 A=    0.0000 R=    0.0000 C=    0.0000
 XYZ=    6.6126   -4.4906   -6.6116 Q=    0.4100 A=    0.0000 R=    0.0000 C=    0.0000
 XYZ=    5.4431   -4.6763   -7.7361 Q=    0.4100 A=    0.0000 R=    0.0000 C=    0.0000
 XYZ=   -2.7374    8.2077    1.5807 Q=   -0.8200 A=    0.0000 R=    0.0000 C=    0.0000
 XYZ=   -2.9353    8.8900    2.2845 Q=    0.4100 A=    0.0000 R=    0.0000 C=    0.0000
 XYZ=   -3.1164    7.3245    1.8567 Q=    0.4100 A=    0.0000 R=    0.0000 C=    0.0000
 XYZ=   -3.8200   -6.6552   -5.6858 Q=   -0.8200 A=    0.0000 R=    0.0000 C=    0.0000
 XYZ=   -4.0580   -6.9254   -6.6187 Q=    0.4100 A=    0.0000 R=    0.0000 C=    0.0000
 XYZ=   -4.6192   -6.2492   -5.2424 Q=    0.4100 A=    0.0000 R=    0.0000 C=    0.0000
 XYZ=   -3.8581    2.8021   -7.4465 Q=   -0.8200 A=    0.0000 R=    0.0000 C=    0.0000
 XYZ=   -4.8090    2.4951   -7.4066 Q=    0.4100 A=    0.0000 R=    0.0000 C=    0.0000
 XYZ=   -3.8073    3.7649   -7.1807 Q=    0.4100 A=    0.0000 R=    0.0000 C=    0.0000
 XYZ=    8.7812    1.6224   -3.0782 Q=   -0.8200 A=    0.0000 R=    0.0000 C=    0.0000
 XYZ=    9.5693    2.1017   -2.6920 Q=    0.4100 A=    0.0000 R=    0.0000 C=    0.0000
 XYZ=    8.9035    0.6361   -2.9668 Q=    0.4100 A=    0.0000 R=    0.0000 C=    0.0000
 XYZ=   -0.4426    4.8994   -8.1458 Q=   -0.8200 A=    0.0000 R=    0.0000 C=    0.0000
 XYZ=   -1.1696    4.7836   -7.4690 Q=    0.4100 A=    0.0000 R=    0.0000 C=    0.0000
 XYZ=    0.4466    4.7865   -7.7024 Q=    0.4100 A=    0.0000 R=    0.0000 C=    0.0000
 XYZ=   -0.1768    0.1683   -9.6413 Q=   -0.8200 A=    0.0000 R=    0.0000 C=    0.0000
 XYZ=    0.4425   -0.5694   -9.9100 Q=    0.4100 A=    0.0000 R=    0.0000 C=    0.0000
 XYZ=   -1.0568   -0.2189   -9.3660 Q=    0.4100 A=    0.0000 R=    0.0000 C=    0.0000
 XYZ=    5.1911   -0.6760    6.8035 Q=   -0.8200 A=    0.0000 R=    0.0000 C=    0.0000
 XYZ=    5.8240   -0.4152    7.5325 Q=    0.4100 A=    0.0000 R=    0.0000 C=    0.0000
 XYZ=    5.6062   -1.3918    6.2419 Q=    0.4100 A=    0.0000 R=    0.0000 C=    0.0000
 XYZ=  -10.2982    0.7920   -0.3636 Q=   -0.8200 A=    0.0000 R=    0.0000 C=    0.0000
 XYZ=  -10.5159    1.6736   -0.7826 Q=    0.4100 A=    0.0000 R=    0.0000 C=    0.0000
 XYZ=   -9.3251    0.7630   -0.1348 Q=    0.4100 A=    0.0000 R=    0.0000 C=    0.0000
 XYZ=   -0.1478    5.3494    8.0467 Q=   -0.8200 A=    0.0000 R=    0.0000 C=    0.0000
 XYZ=    0.2345    5.7386    8.8848 Q=    0.4100 A=    0.0000 R=    0.0000 C=    0.0000
 XYZ=    0.0074    4.3615    8.0370 Q=    0.4100 A=    0.0000 R=    0.0000 C=    0.0000
 XYZ=   -0.5375    8.2060    2.7882 Q=   -0.8200 A=    0.0000 R=    0.0000 C=    0.0000
 XYZ=   -0.4728    9.1843    2.9847 Q=    0.4100 A=    0.0000 R=    0.0000 C=    0.0000
 XYZ=   -1.3762    8.0239    2.2750 Q=    0.4100 A=    0.0000 R=    0.0000 C=    0.0000
 XYZ=    6.1667    6.4230    3.2136 Q=   -0.8200 A=    0.0000 R=    0.0000 C=    0.0000
 XYZ=    5.2597    6.0496    3.4088 Q=    0.4100 A=    0.0000 R=    0.0000 C=    0.0000
 XYZ=    6.7866    5.6792    2.9637 Q=    0.4100 A=    0.0000 R=    0.0000 C=    0.0000
 XYZ=    7.9802    5.0792   -3.5367 Q=   -0.8200 A=    0.0000 R=    0.0000 C=    0.0000
 XYZ=    7.5264    4.9991   -2.6492 Q=    0.4100 A=    0.0000 R=    0.0000 C=    0.0000
 XYZ=    8.9715    5.0556   -3.4075 Q=    0.4100 A=    0.0000 R=    0.0000 C=    0.0000
 XYZ=    1.9301   -7.2829   -6.4125 Q=   -0.8200 A=    0.0000 R=    0.0000 C=    0.0000
 XYZ=    2.5643   -6.5406   -6.6287 Q=    0.4100 A=    0.0000 R=    0.0000 C=    0.0000
 XYZ=    2.3812   -7.9421   -5.8109 Q=    0.4100 A=    0.0000 R=    0.0000 C=    0.0000
 XYZ=    1.0528   -1.7529  -10.3042 Q=   -0.8200 A=    0.0000 R=    0.0000 C=    0.0000
 XYZ=    1.9212   -1.6182   -9.8269 Q=    0.4100 A=    0.0000 R=    0.0000 C=    0.0000
 XYZ=    1.1889   -1.6236  -11.2865 Q=    0.4100 A=    0.0000 R=    0.0000 C=    0.0000
 XYZ=   -6.1131   -6.0551   -5.0988 Q=   -0.8200 A=    0.0000 R=    0.0000 C=    0.0000
 XYZ=   -6.4795   -5.1411   -4.9246 Q=    0.4100 A=    0.0000 R=    0.0000 C=    0.0000
 XYZ=   -6.1945   -6.6102   -4.2710 Q=    0.4100 A=    0.0000 R=    0.0000 C=    0.0000
 XYZ=   -6.3870   -7.1531   -3.1230 Q=   -0.8200 A=    0.0000 R=    0.0000 C=    0.0000
 XYZ=   -6.5233   -6.2146   -2.8055 Q=    0.4100 A=    0.0000 R=    0.0000 C=    0.0000
 XYZ=   -7.2656   -7.6305   -3.1386 Q=    0.4100 A=    0.0000 R=    0.0000 C=    0.0000
 XYZ=   -1.7739   -8.5523    4.0044 Q=   -0.8200 A=    0.0000 R=    0.0000 C=    0.0000
 XYZ=   -1.4343   -9.2295    3.3515 Q=    0.4100 A=    0.0000 R=    0.0000 C=    0.0000
 XYZ=   -1.9219   -7.6818    3.5350 Q=    0.4100 A=    0.0000 R=    0.0000 C=    0.0000
 XYZ=   -0.0133   -3.8043   -9.7512 Q=   -0.8200 A=    0.0000 R=    0.0000 C=    0.0000
 XYZ=    0.5428   -2.9876   -9.9060 Q=    0.4100 A=    0.0000 R=    0.0000 C=    0.0000
 XYZ=    0.2902   -4.2604   -8.9146 Q=    0.4100 A=    0.0000 R=    0.0000 C=    0.0000
 XYZ=    1.3835    2.0787   -9.9610 Q=   -0.8200 A=    0.0000 R=    0.0000 C=    0.0000
 XYZ=    0.9755    2.8934  -10.3732 Q=    0.4100 A=    0.0000 R=    0.0000 C=    0.0000
 XYZ=    0.6947    1.3564   -9.8983 Q=    0.4100 A=    0.0000 R=    0.0000 C=    0.0000
 XYZ=   10.1393    2.0085    1.5093 Q=   -0.8200 A=    0.0000 R=    0.0000 C=    0.0000
 XYZ=    9.3359    1.4180    1.5850 Q=    0.4100 A=    0.0000 R=    0.0000 C=    0.0000
 XYZ=    9.8556    2.9659    1.5641 Q=    0.4100 A=    0.0000 R=    0.0000 C=    0.0000
 XYZ=    8.6711   -2.8153   -6.2524 Q=   -0.8200 A=    0.0000 R=    0.0000 C=    0.0000
 XYZ=    8.3434   -1.9842   -5.8030 Q=    0.4100 A=    0.0000 R=    0.0000 C=    0.0000
 XYZ=    8.8194   -2.6323   -7.2243 Q=    0.4100 A=    0.0000 R=    0.0000 C=    0.0000
 XYZ=   -6.8129    5.8560    0.2155 Q=   -0.8200 A=    0.0000 R=    0.0000 C=    0.0000
 XYZ=   -6.5877    6.8279    0.1459 Q=    0.4100 A=    0.0000 R=    0.0000 C=    0.0000
 XYZ=   -7.6215    5.6607   -0.3397 Q=    0.4100 A=    0.0000 R=    0.0000 C=    0.0000
 XYZ=   -7.4227   -4.0221   -4.9750 Q=   -0.8200 A=    0.0000 R=    0.0000 C=    0.0000
 XYZ=   -7.1644   -3.4831   -5.7768 Q=    0.4100 A=    0.0000 R=    0.0000 C=    0.0000
 XYZ=   -8.4168   -4.1286   -4.9512 Q=    0.4100 A=    0.0000 R=    0.0000 C=    0.0000
 XYZ=   -8.9566   -5.5720    2.2702 Q=   -0.8200 A=    0.0000 R=    0.0000 C=    0.0000
 XYZ=   -9.4916   -5.7966    1.4557 Q=    0.4100 A=    0.0000 R=    0.0000 C=    0.0000
 XYZ=   -8.3036   -4.8472    2.0506 Q=    0.4100 A=    0.0000 R=    0.0000 C=    0.0000
 XYZ=   -1.9267    2.5638    9.1728 Q=   -0.8200 A=    0.0000 R=    0.0000 C=    0.0000
 XYZ=   -2.4919    1.7618    8.9800 Q=    0.4100 A=    0.0000 R=    0.0000 C=    0.0000
 XYZ=   -1.7077    2.5905   10.1482 Q=    0.4100 A=    0.0000 R=    0.0000 C=    0.0000
 XYZ=   -7.5917   -2.8435    5.7443 Q=   -0.8200 A=    0.0000 R=    0.0000 C=    0.0000
 XYZ=   -8.4226   -2.4402    5.3610 Q=    0.4100 A=    0.0000 R=    0.0000 C=    0.0000
 XYZ=   -7.2176   -2.2343    6.4436 Q=    0.4100 A=    0.0000 R=    0.0000 C=    0.0000
 XYZ=   -3.3301    0.7463    8.8650 Q=   -0.8200 A=    0.0000 R=    0.0000 C=    0.0000
 XYZ=   -2.8116   -0.0960    9.0124 Q=    0.4100 A=    0.0000 R=    0.0000 C=    0.0000
 XYZ=   -4.2910    0.5907    9.0944 Q=    0.4100 A=    0.0000 R=    0.0000 C=    0.0000
 XYZ=   -6.5786    5.1140    4.4316 Q=   -0.8200 A=    0.0000 R=    0.0000 C=    0.0000
 XYZ=   -7.2111    5.8369    4.1533 Q=    0.4100 A=    0.0000 R=    0.0000 C=    0.0000
 XYZ=   -7.0121    4.5416    5.1276 Q=    0.4100 A=    0.0000 R=    0.0000 C=    0.0000
 XYZ=   -2.0962   -8.3531   -6.3255 Q=   -0.8200 A=    0.0000 R=    0.0000 C=    0.0000
 XYZ=   -2.6031   -7.6676   -5.8028 Q=    0.4100 A=    0.0000 R=    0.0000 C=    0.0000
 XYZ=   -2.6872   -8.7340   -7.0366 Q=    0.4100 A=    0.0000 R=    0.0000 C=    0.0000
 XYZ=    8.2596    3.6802    4.9620 Q=   -0.8200 A=    0.0000 R=    0.0000 C=    0.0000
 XYZ=    7.4871    3.0825    4.7472 Q=    0.4100 A=    0.0000 R=    0.0000 C=    0.0000
 XYZ=    9.0368    3.1261    5.2604 Q=    0.4100 A=    0.0000 R=    0.0000 C=    0.0000
 XYZ=    9.3083    4.1802    1.6880 Q=   -0.8200 A=    0.0000 R=    0.0000 C=    0.0000
 XYZ=    8.4758    4.2420    2.2385 Q=    0.4100 A=    0.0000 R=    0.0000 C=    0.0000
 XYZ=   10.0502    4.6663    2.1500 Q=    0.4100 A=    0.0000 R=    0.0000 C=    0.0000
 XYZ=   -6.5677   -6.6536    5.4416 Q=   -0.8200 A=    0.0000 R=    0.0000 C=    0.0000
 XYZ=   -5.8798   -6.1096    4.9611 Q=    0.4100 A=    0.0000 R=    0.0000 C=    0.0000
 XYZ=   -7.3125   -6.0582    5.7430 Q=    0.4100 A=    0.0000 R=    0.0000 C=    0.0000
 XYZ=   -2.3633    4.7230    8.5307 Q=   -0.8200 A=    0.0000 R=    0.0000 C=    0.0000
 XYZ=   -1.5025    5.1409    8.2400 Q=    0.4100 A=    0.0000 R=    0.0000 C=    0.0000
 XYZ=   -2.2300    3.7402    8.6590 Q=    0.4100 A=    0.0000 R=    0.0000 C=    0.0000
 XYZ=    7.7271   -5.4130   -3.7841 Q=   -0.8200 A=    0.0000 R=    0.0000 C=    0.0000
 XYZ=    7.5877   -5.2631   -4.7630 Q=    0.4100 A=    0.0000 R=    0.0000 C=    0.0000
 XYZ=    8.3821   -6.1567   -3.6508 Q=    0.4100 A=    0.0000 R=    0.0000 C=    0.0000
 XYZ=   -0.1269   -4.4435    9.1648 Q=   -0.8200 A=    0.0000 R=    0.0000 C=    0.0000
 XYZ=    0.2146   -4.0356    8.3181 Q=    0.4100 A=    0.0000 R=    0.0000 C=    0.0000
 XYZ=    0.4338   -5.2367    9.4024 Q=    0.4100 A=    0.0000 R=    0.0000 C=    0.0000
 XYZ=   -9.3464    4.8635    1.9266 Q=   -0.8200 A=    0.0000 R=    0.0000 C=    0.0000
 XYZ=   -8.6488    4.1503    1.8568 Q=    0.4100 A=    0.0000 R=    0.0000 C=    0.0000
 XYZ=  -10.1674    4.4859    2.3549 Q=    0.4100 A=    0.0000 R=    0.0000 C=    0.0000
 XYZ=   -6.9771   -2.8211   -6.8446 Q=   -0.8200 A=    0.0000 R=    0.0000 C=    0.0000
 XYZ=   -6.5049   -3.4667   -7.4447 Q=    0.4100 A=    0.0000 R=    0.0000 C=    0.0000
 XYZ=   -7.4488   -2.1350   -7.3985 Q=    0.4100 A=    0.0000 R=    0.0000 C=    0.0000
 XYZ=   -8.3215    3.8391   -2.7471 Q=   -0.8200 A=    0.0000 R=    0.0000 C=    0.0000
 XYZ=   -7.6913    3.7366   -3.5167 Q=    0.4100 A=    0.0000 R=    0.0000 C=    0.0000
 XYZ=   -9.2591    3.6920   -3.0622 Q=    0.4100 A=    0.0000 R=    0.0000 C=    0.0000
 XYZ=   -6.0546   -7.4892    0.6562 Q=   -0.8200 A=    0.0000 R=    0.0000 C=    0.0000
 XYZ=   -6.8964   -7.4785    1.1960 Q=    0.4100 A=    0.0000 R=    0.0000 C=    0.0000
 XYZ=   -6.0875   -8.2450    0.0022 Q=    0.4100 A=    0.0000 R=    0.0000 C=    0.0000
 XYZ=   -0.3428   -7.1958   -7.2442 Q=   -0.8200 A=    0.0000 R=    0.0000 C=    0.0000
 XYZ=   -1.0766   -7.7145   -6.8052 Q=    0.4100 A=    0.0000 R=    0.0000 C=    0.0000
 XYZ=    0.4839   -7.2488   -6.6841 Q=    0.4100 A=    0.0000 R=    0.0000 C=    0.0000
 XYZ=    4.8927    2.1836    7.8395 Q=   -0.8200 A=    0.0000 R=    0.0000 C=    0.0000
 XYZ=    5.6060    2.7545    7.4330 Q=    0.4100 A=    0.0000 R=    0.0000 C=    0.0000
 XYZ=    4.4804    2.6654    8.6127 Q=    0.4100 A=    0.0000 R=    0.0000 C=    0.0000
 XYZ=   -4.2896   -8.2703    1.8167 Q=   -0.8200 A=    0.0000 R=    0.0000 C=    0.0000
 XYZ=   -5.0368   -8.0416    1.1927 Q=    0.4100 A=    0.0000 R=    0.0000 C=    0.0000
 XYZ=   -3.4677   -8.4837    1.2885 Q=    0.4100 A=    0.0000 R=    0.0000 C=    0.0000
 XYZ=   -7.5902    3.8619    6.1212 Q=   -0.8200 A=    0.0000 R=    0.0000 C=    0.0000
 XYZ=   -7.6800    3.8286    7.1167 Q=    0.4100 A=    0.0000 R=    0.0000 C=    0.0000
 XYZ=   -7.6353    2.9339    5.7513 Q=    0.4100 A=    0.0000 R=    0.0000 C=    0.0000
 XYZ=   -4.5880   -2.2366    8.5455 Q=   -0.8200 A=    0.0000 R=    0.0000 C=    0.0000
 XYZ=   -3.7178   -1.7791    8.7288 Q=    0.4100 A=    0.0000 R=    0.0000 C=    0.0000
 XYZ=   -4.5550   -3.1705    8.9014 Q=    0.4100 A=    0.0000 R=    0.0000 C=    0.0000
 XYZ=   10.8864   -0.8978   -0.7165 Q=   -0.8200 A=    0.0000 R=    0.0000 C=    0.0000
 XYZ=   11.6349   -1.1683   -0.1110 Q=    0.4100 A=    0.0000 R=    0.0000 C=    0.0000
 XYZ=   10.0156   -0.9984   -0.2352 Q=    0.4100 A=    0.0000 R=    0.0000 C=    0.0000
 XYZ=   10.3779    3.0633   -1.8766 Q=   -0.8200 A=    0.0000 R=    0.0000 C=    0.0000
 XYZ=    9.5832    3.3332   -1.3328 Q=    0.4100 A=    0.0000 R=    0.0000 C=    0.0000
 XYZ=   11.0458    2.6083   -1.2877 Q=    0.4100 A=    0.0000 R=    0.0000 C=    0.0000
 XYZ=   -3.4379    2.7625   -9.8504 Q=   -0.8200 A=    0.0000 R=    0.0000 C=    0.0000
 XYZ=   -3.2450    2.7421   -8.8695 Q=    0.4100 A=    0.0000 R=    0.0000 C=    0.0000
 XYZ=   -3.4385    1.8292  -10.2095 Q=    0.4100 A=    0.0000 R=    0.0000 C=    0.0000
 XYZ=    9.6778   -3.1571    1.9047 Q=   -0.8200 A=    0.0000 R=    0.0000 C=    0.0000
 XYZ=    8.7786   -3.5826    2.0065 Q=    0.4100 A=    0.0000 R=    0.0000 C=    0.0000
 XYZ=   10.3105   -3.8104    1.4888 Q=    0.4100 A=    0.0000 R=    0.0000 C=    0.0000
 XYZ=   -9.5102   -1.7747    5.0650 Q=   -0.8200 A=    0.0000 R=    0.0000 C=    0.0000
 XYZ=   -9.4622   -1.1786    4.2635 Q=    0.4100 A=    0.0000 R=    0.0000 C=    0.0000
 XYZ=  -10.1686   -2.5081    4.8960 Q=    0.4100 A=    0.0000 R=    0.0000 C=    0.0000
 XYZ=   -1.0884   -7.0275    5.9309 Q=   -0.8200 A=    0.0000 R=    0.0000 C=    0.0000
 XYZ=   -1.8597   -6.9621    6.5640 Q=    0.4100 A=    0.0000 R=    0.0000 C=    0.0000
 XYZ=   -1.2795   -7.7291    5.2442 Q=    0.4100 A=    0.0000 R=    0.0000 C=    0.0000
 XYZ=   -4.5493    7.2443   -3.8930 Q=   -0.8200 A=    0.0000 R=    0.0000 C=    0.0000
 XYZ=   -3.8944    7.3946   -3.1524 Q=    0.4100 A=    0.0000 R=    0.0000 C=    0.0000
 XYZ=   -4.9606    6.3381   -3.7954 Q=    0.4100 A=    0.0000 R=    0.0000 C=    0.0000
 XYZ=   -2.4464   -8.9763    0.5388 Q=   -0.8200 A=    0.0000 R=    0.0000 C=    0.0000
 XYZ=   -2.1254   -9.5383    1.3012 Q=    0.4100 A=    0.0000 R=    0.0000 C=    0.0000
 XYZ=   -2.6503   -9.5629   -0.2450 Q=    0.4100 A=    0.0000 R=    0.0000 C=    0.0000
 XYZ=    5.7564    7.9673    1.4614 Q=   -0.8200 A=    0.0000 R=    0.0000 C=    0.0000
 XYZ=    5.9806    8.9047    1.7282 Q=    0.4100 A=    0.0000 R=    0.0000 C=    0.0000
 XYZ=    5.9173    7.3533    2.2341 Q=    0.4100 A=    0.0000 R=    0.0000 C=    0.0000
 XYZ=    6.7264   -6.6469    2.3673 Q=   -0.8200 A=    0.0000 R=    0.0000 C=    0.0000
 XYZ=    7.1904   -5.7609    2.3685 Q=    0.4100 A=    0.0000 R=    0.0000 C=    0.0000
 XYZ=    5.7753   -6.5254    2.6514 Q=    0.4100 A=    0.0000 R=    0.0000 C=    0.0000
 XYZ=    2.7483    0.3538  -11.3196 Q=   -0.8200 A=    0.0000 R=    0.0000 C=    0.0000
 XYZ=    2.3470    1.1376  -10.8456 Q=    0.4100 A=    0.0000 R=    0.0000 C=    0.0000
 XYZ=    2.9741   -0.3580  -10.6546 Q=    0.4100 A=    0.0000 R=    0.0000 C=    0.0000
 XYZ=    1.5075    3.3725   10.2763 Q=   -0.8200 A=    0.0000 R=    0.0000 C=    0.0000
 XYZ=    2.4744    3.2087   10.0801 Q=    0.4100 A=    0.0000 R=    0.0000 C=    0.0000
 XYZ=    0.9449    2.8908    9.6043 Q=    0.4100 A=    0.0000 R=    0.0000 C=    0.0000
 XYZ=    7.6770   -4.8417   -6.0856 Q=   -0.8200 A=    0.0000 R=    0.0000 C=    0.0000
 XYZ=    8.2395   -4.0174   -6.0226 Q=    0.4100 A=    0.0000 R=    0.0000 C=    0.0000
 XYZ=    8.1723   -5.5450   -6.5956 Q=    0.4100 A=    0.0000 R=    0.0000 C=    0.0000
 XYZ=   -0.0586    8.8121    5.7552 Q=   -0.8200 A=    0.0000 R=    0.0000 C=    0.0000
 XYZ=    0.5288    8.1838    5.2450 Q=    0.4100 A=    0.0000 R=    0.0000 C=    0.0000
 XYZ=   -0.9445    8.3792    5.9217 Q=    0.4100 A=    0.0000 R=    0.0000 C=    0.0000
 XYZ=    4.5042   -4.8337   -8.9433 Q=   -0.8200 A=    0.0000 R=    0.0000 C=    0.0000
 XYZ=    4.9651   -5.4945   -9.5358 Q=    0.4100 A=    0.0000 R=    0.0000 C=    0.0000
 XYZ=    4.2084   -4.0482   -9.4869 Q=    0.4100 A=    0.0000 R=    0.0000 C=    0.0000
 XYZ=   -3.3878   -5.6837   -9.4780 Q=   -0.8200 A=    0.0000 R=    0.0000 C=    0.0000
 XYZ=   -3.7912   -4.8533   -9.8622 Q=    0.4100 A=    0.0000 R=    0.0000 C=    0.0000
 XYZ=   -3.0625   -5.4980   -8.5508 Q=    0.4100 A=    0.0000 R=    0.0000 C=    0.0000
 XYZ=    6.4475    6.5709   -4.8441 Q=   -0.8200 A=    0.0000 R=    0.0000 C=    0.0000
 XYZ=    7.0944    6.0826   -4.2582 Q=    0.4100 A=    0.0000 R=    0.0000 C=    0.0000
 XYZ=    6.4808    6.1891   -5.7677 Q=    0.4100 A=    0.0000 R=    0.0000 C=    0.0000
 XYZ=    0.3449    4.0258  -10.6323 Q=   -0.8200 A=    0.0000 R=    0.0000 C=    0.0000
 XYZ=    0.0888    4.0148   -9.6656 Q=    0.4100 A=    0.0000 R=    0.0000 C=    0.0000
 XYZ=    0.5027    4.9691  -10.9245 Q=    0.4100 A=    0.0000 R=    0.0000 C=    0.0000
 XYZ=   -2.3772    9.2250   -0.3416 Q=   -0.8200 A=    0.0000 R=    0.0000 C=    0.0000
 XYZ=   -1.4503    9.5968   -0.3940 Q=    0.4100 A=    0.0000 R=    0.0000 C=    0.0000
 XYZ=   -2.5303    8.8383    0.5679 Q=    0.4100 A=    0.0000 R=    0.0000 C=    0.0000
 XYZ=   -5.6211   -8.8995   -1.1796 Q=   -0.8200 A=    0.0000 R=    0.0000 C=    0.0000
 XYZ=   -6.3544   -9.5752   -1.2554 Q=    0.4100 A=    0.0000 R=    0.0000 C=    0.0000
 XYZ=   -5.8770   -8.0725   -1.6802 Q=    0.4100 A=    0.0000 R=    0.0000 C=    0.0000
 XYZ=   -5.3684    6.8418    5.9500 Q=   -0.8200 A=    0.0000 R=    0.0000 C=    0.0000
 XYZ=   -6.2312    7.2176    6.2884 Q=    0.4100 A=    0.0000 R=    0.0000 C=    0.0000
 XYZ=   -5.5567    6.1552    5.2478 Q=    0.4100 A=    0.0000 R=    0.0000 C=    0.0000
 XYZ=    4.9328   -2.5131  -10.3038 Q=   -0.8200 A=    0.0000 R=    0.0000 C=    0.0000
 XYZ=    5.3132   -2.4282  -11.2247 Q=    0.4100 A=    0.0000 R=    0.0000 C=    0.0000
 XYZ=    5.6537   -2.3535   -9.6293 Q=    0.4100 A=    0.0000 R=    0.0000 C=    0.0000
 XYZ=   -1.8103   -9.8429   -4.4724 Q=   -0.8200 A=    0.0000 R=    0.0000 C=    0.0000
 XYZ=   -1.3085   -9.3735   -3.7458 Q=    0.4100 A=    0.0000 R=    0.0000 C=    0.0000
 XYZ=   -1.9442   -9.2184   -5.2419 Q=    0.4100 A=    0.0000 R=    0.0000 C=    0.0000
 XYZ=   -2.0841   -2.8744  -10.5705 Q=   -0.8200 A=    0.0000 R=    0.0000 C=    0.0000
 XYZ=   -1.3330   -3.2727  -10.0439 Q=    0.4100 A=    0.0000 R=    0.0000 C=    0.0000
 XYZ=   -1.9061   -2.9935  -11.5474 Q=    0.4100 A=    0.0000 R=    0.0000 C=    0.0000
 XYZ=   -8.6455   -0.1150    6.8731 Q=   -0.8200 A=    0.0000 R=    0.0000 C=    0.0000
 XYZ=   -9.1422   -0.7721    6.3059 Q=    0.4100 A=    0.0000 R=    0.0000 C=    0.0000
 XYZ=   -7.7889   -0.5255    7.1861 Q=    0.4100 A=    0.0000 R=    0.0000 C=    0.0000
 XYZ=   -3.3275    0.4574  -10.7183 Q=   -0.8200 A=    0.0000 R=    0.0000 C=    0.0000
 XYZ=   -2.9446   -0.2713  -10.1505 Q=    0.4100 A=    0.0000 R=    0.0000 C=    0.0000
 XYZ=   -4.2008    0.1570  -11.1018 Q=    0.4100 A=    0.0000 R=    0.0000 C=    0.0000
 XYZ=   -0.1109    9.8126   -0.5096 Q=   -0.8200 A=    0.0000 R=    0.0000 C=    0.0000
 XYZ=   -0.1231    9.8105   -1.5096 Q=    0.4100 A=    0.0000 R=    0.0000 C=    0.0000
 XYZ=    0.5828    9.1704   -0.1835 Q=    0.4100 A=    0.0000 R=    0.0000 C=    0.0000
 XYZ=    5.9422    0.3518    8.8374 Q=   -0.8200 A=    0.0000 R=    0.0000 C=    0.0000
 XYZ=    5.3335    1.0034    8.3847 Q=    0.4100 A=    0.0000 R=    0.0000 C=    0.0000
 XYZ=    6.7338    0.8374    9.2082 Q=    0.4100 A=    0.0000 R=    0.0000 C=    0.0000
 XYZ=   -3.0975   -6.3700    7.0602 Q=   -0.8200 A=    0.0000 R=    0.0000 C=    0.0000
 XYZ=   -2.8054   -6.1096    7.9805 Q=    0.4100 A=    0.0000 R=    0.0000 C=    0.0000
 XYZ=   -4.0059   -6.7860    7.1041 Q=    0.4100 A=    0.0000 R=    0.0000 C=    0.0000
 XYZ=   -4.3924    5.4017   -6.8335 Q=   -0.8200 A=    0.0000 R=    0.0000 C=    0.0000
 XYZ=   -4.5402    6.1421   -6.1777 Q=    0.4100 A=    0.0000 R=    0.0000 C=    0.0000
 XYZ=   -5.2089    5.2903   -7.4000 Q=    0.4100 A=    0.0000 R=    0.0000 C=    0.0000
 XYZ=    7.2109    7.4374   -0.3626 Q=   -0.8200 A=    0.0000 R=    0.0000 C=    0.0000
 XYZ=    6.5401    7.8091    0.2791 Q=    0.4100 A=    0.0000 R=    0.0000 C=    0.0000
 XYZ=    8.0622    7.2388    0.1230 Q=    0.4100 A=    0.0000 R=    0.0000 C=    0.0000
 XYZ=   -7.2855    3.9492   -6.7346 Q=   -0.8200 A=    0.0000 R=    0.0000 C=    0.0000
 XYZ=   -7.0934    4.7366   -7.3203 Q=    0.4100 A=    0.0000 R=    0.0000 C=    0.0000
 XYZ=   -6.6858    3.1905   -6.9888 Q=    0.4100 A=    0.0000 R=    0.0000 C=    0.0000
 XYZ=   -8.5652    5.8603   -1.4861 Q=   -0.8200 A=    0.0000 R=    0.0000 C=    0.0000
 XYZ=   -8.6296    6.6228   -2.1299 Q=    0.4100 A=    0.0000 R=    0.0000 C=    0.0000
 XYZ=   -8.3926    5.0133   -1.9889 Q=    0.4100 A=    0.0000 R=    0.0000 C=    0.0000
 XYZ=   -0.4448    9.6218   -2.9213 Q=   -0.8200 A=    0.0000 R=    0.0000 C=    0.0000
 XYZ=   -1.2400   10.0583   -3.3422 Q=    0.4100 A=    0.0000 R=    0.0000 C=    0.0000
 XYZ=   -0.5315    8.6284   -2.9959 Q=    0.4100 A=    0.0000 R=    0.0000 C=    0.0000
 XYZ=  -11.3419    0.0791    1.6366 Q=   -0.8200 A=    0.0000 R=    0.0000 C=    0.0000
 XYZ=  -11.0253    0.3068    0.7158 Q=    0.4100 A=    0.0000 R=    0.0000 C=    0.0000
 XYZ=  -10.5945   -0.3408    2.1516 Q=    0.4100 A=    0.0000 R=    0.0000 C=    0.0000
 XYZ=   -4.2779    6.1167    7.9597 Q=   -0.8200 A=    0.0000 R=    0.0000 C=    0.0000
 XYZ=   -4.6261    6.2206    7.0280 Q=    0.4100 A=    0.0000 R=    0.0000 C=    0.0000
 XYZ=   -3.4603    5.5411    7.9477 Q=    0.4100 A=    0.0000 R=    0.0000 C=    0.0000
 XYZ=   -8.3277   -5.0487    6.1066 Q=   -0.8200 A=    0.0000 R=    0.0000 C=    0.0000
 XYZ=   -9.0601   -5.0841    5.4266 Q=    0.4100 A=    0.0000 R=    0.0000 C=    0.0000
 XYZ=   -7.8938   -4.1481    6.0824 Q=    0.4100 A=    0.0000 R=    0.0000 C=    0.0000
 XYZ=    4.9652    5.3230    7.0480 Q=   -0.8200 A=    0.0000 R=    0.0000 C=    0.0000
 XYZ=    5.4570    6.1935    7.0654 Q=    0.4100 A=    0.0000 R=    0.0000 C=    0.0000
 XYZ=    5.6214    4.5688    7.0736 Q=    0.4100 A=    0.0000 R=    0.0000 C=    0.0000
 XYZ=   -1.3063    0.7321  -11.6792 Q=   -0.8200 A=    0.0000 R=    0.0000 C=    0.0000
 XYZ=   -0.6964    0.8065  -10.8902 Q=    0.4100 A=    0.0000 R=    0.0000 C=    0.0000
 XYZ=   -2.2548    0.6924  -11.3647 Q=    0.4100 A=    0.0000 R=    0.0000 C=    0.0000
 XYZ=    9.4518   -4.6355   -1.1359 Q=   -0.8200 A=    0.0000 R=    0.0000 C=    0.0000
 XYZ=    9.5733   -4.4812   -2.1165 Q=    0.4100 A=    0.0000 R=    0.0000 C=    0.0000
 XYZ=    9.4176   -5.6184   -0.9550 Q=    0.4100 A=    0.0000 R=    0.0000 C=    0.0000
 XYZ=   -6.5309   -6.3897   -7.3988 Q=   -0.8200 A=    0.0000 R=    0.0000 C=    0.0000
 XYZ=   -5.7117   -6.8691   -7.7137 Q=    0.4100 A=    0.0000 R=    0.0000 C=    0.0000
 XYZ=   -6.4979   -6.2913   -6.4042 Q=    0.4100 A=    0.0000 R=    0.0000 C=    0.0000
 XYZ=    6.7631    5.5132   -6.9751 Q=   -0.8200 A=    0.0000 R=    0.0000 C=    0.0000
 XYZ=    7.6970    5.8699   -7.0025 Q=    0.4100 A=    0.0000 R=    0.0000 C=    0.0000
 XYZ=    6.3739    5.5271   -7.8962 Q=    0.4100 A=    0.0000 R=    0.0000 C=    0.0000
 XYZ=   -6.1762   -4.2464   -8.5649 Q=   -0.8200 A=    0.0000 R=    0.0000 C=    0.0000
 XYZ=   -5.2754   -4.1858   -8.9950 Q=    0.4100 A=    0.0000 R=    0.0000 C=    0.0000
 XYZ=   -6.2643   -5.1266   -8.0986 Q=    0.4100 A=    0.0000 R=    0.0000 C=    0.0000
 XYZ=   -2.3180    8.1156    6.0926 Q=   -0.8200 A=    0.0000 R=    0.0000 C=    0.0000
 XYZ=   -3.0213    8.4254    5.4527 Q=    0.4100 A=    0.0000 R=    0.0000 C=    0.0000
 XYZ=   -2.6424    8.2402    7.0303 Q=    0.4100 A=    0.0000 R=    0.0000 C=    0.0000
 XYZ=   -7.9688   -7.8059    2.0597 Q=   -0.8200 A=    0.0000 R=    0.0000 C=    0.0000
 XYZ=   -8.2164   -6.8503    2.2198 Q=    0.4100 A=    0.0000 R=    0.0000 C=    0.0000
 XYZ=   -7.6390   -8.2121    2.9120 Q=    0.4100 A=    0.0000 R=    0.0000 C=    0.0000
 XYZ=    6.6188    3.5794    7.0161 Q=   -0.8200 A=    0.0000 R=    0.0000 C=    0.0000
 XYZ=    7.2678    3.6289    6.2569 Q=    0.4100 A=    0.0000 R=    0.0000 C=    0.0000
 XYZ=    7.1183    3.5865    7.8825 Q=    0.4100 A=    0.0000 R=    0.0000 C=    0.0000
 XYZ=   -4.2841   -3.4522  -10.1491 Q=   -0.8200 A=    0.0000 R=    0.0000 C=    0.0000
 XYZ=   -4.9116   -2.7104  -10.3860 Q=    0.4100 A=    0.0000 R=    0.0000 C=    0.0000
 XYZ=   -3.3409   -3.1315  -10.2364 Q=    0.4100 A=    0.0000 R=    0.0000 C=    0.0000
 XYZ=  -11.2450    1.7992    3.3061 Q=   -0.8200 A=    0.0000 R=    0.0000 C=    0.0000
 XYZ=  -10.3259    1.8702    3.6937 Q=    0.4100 A=    0.0000 R=    0.0000 C=    0.0000
 XYZ=  -11.2550    1.0915    2.5996 Q=    0.4100 A=    0.0000 R=    0.0000 C=    0.0000
 XYZ=   -3.5622  -10.3044   -1.1651 Q=   -0.8200 A=    0.0000 R=    0.0000 C=    0.0000
 XYZ=   -3.3633  -10.7067   -2.0588 Q=    0.4100 A=    0.0000 R=    0.0000 C=    0.0000
 XYZ=   -4.2082   -9.5491   -1.2760 Q=    0.4100 A=    0.0000 R=    0.0000 C=    0.0000
 XYZ=   11.4370    1.3777   -0.4841 Q=   -0.8200 A=    0.0000 R=    0.0000 C=    0.0000
 XYZ=   11.2025    0.4390   -0.7372 Q=    0.4100 A=    0.0000 R=    0.0000 C=    0.0000
 XYZ=   10.9138    1.6453    0.3250 Q=    0.4100 A=    0.0000 R=    0.0000 C=    0.0000
 XYZ=   -3.6709   -9.7732    3.4954 Q=   -0.8200 A=    0.0000 R=    0.0000 C=    0.0000
 XYZ=   -2.8972   -9.3445    3.9620 Q=    0.4100 A=    0.0000 R=    0.0000 C=    0.0000
 XYZ=   -4.0812   -9.1188    2.8603 Q=    0.4100 A=    0.0000 R=    0.0000 C=    0.0000
 XYZ=    8.5710   -2.8538   -8.9878 Q=   -0.8200 A=    0.0000 R=    0.0000 C=    0.0000
 XYZ=    7.6556   -2.4945   -8.8059 Q=    0.4100 A=    0.0000 R=    0.0000 C=    0.0000
 XYZ=    8.5019   -3.8047   -9.2897 Q=    0.4100 A=    0.0000 R=    0.0000 C=    0.0000
 XYZ=    7.0570   -7.9143    0.3620 Q=   -0.8200 A=    0.0000 R=    0.0000 C=    0.0000
 XYZ=    6.6567   -7.3979    1.1191 Q=    0.4100 A=    0.0000 R=    0.0000 C=    0.0000
 XYZ=    7.7661   -8.5255    0.7137 Q=    0.4100 A=    0.0000 R=    0.0000 C=    0.0000
 XYZ=   -9.0884   -5.7434   -1.8100 Q=   -0.8200 A=    0.0000 R=    0.0000 C=    0.0000
 XYZ=   -9.5419   -5.3204   -1.0255 Q=    0.4100 A=    0.0000 R=    0.0000 C=    0.0000
 XYZ=   -9.7006   -6.4159   -2.2261 Q=    0.4100 A=    0.0000 R=    0.0000 C=    0.0000
 XYZ=   -1.1346   -2.6439   10.6622 Q=   -0.8200 A=    0.0000 R=    0.0000 C=    0.0000
 XYZ=   -0.6232   -3.2489   10.0518 Q=    0.4100 A=    0.0000 R=    0.0000 C=    0.0000
 XYZ=   -1.7972   -3.1804   11.1848 Q=    0.4100 A=    0.0000 R=    0.0000 C=    0.0000
 XYZ=   -1.0925    6.0593  -10.0436 Q=   -0.8200 A=    0.0000 R=    0.0000 C=    0.0000
 XYZ=   -1.6852    5.3890  -10.4901 Q=    0.4100 A=    0.0000 R=    0.0000 C=    0.0000
 XYZ=   -0.7364    5.6743   -9.1921 Q=    0.4100 A=    0.0000 R=    0.0000 C=    0.0000
 XYZ=   -2.5072   -5.4738    9.1443 Q=   -0.8200 A=    0.0000 R=    0.0000 C=    0.0000
 XYZ=   -1.7323   -4.8429    9.1043 Q=    0.4100 A=    0.0000 R=    0.0000 C=    0.0000
 XYZ=   -3.3432   -4.9625    9.3436 Q=    0.4100 A=    0.0000 R=    0.0000 C=    0.0000
 XYZ=  -10.2202    4.6759   -0.1753 Q=   -0.8200 A=    0.0000 R=    0.0000 C=    0.0000
 XYZ=   -9.6285    5.1493   -0.8278 Q=    0.4100 A=    0.0000 R=    0.0000 C=    0.0000
 XYZ=   -9.8353    4.7581    0.7441 Q=    0.4100 A=    0.0000 R=    0.0000 C=    0.0000
 XYZ=   -4.3655    8.5468    4.7004 Q=   -0.8200 A=    0.0000 R=    0.0000 C=    0.0000
 XYZ=   -4.7580    7.8067    5.2465 Q=    0.4100 A=    0.0000 R=    0.0000 C=    0.0000
 XYZ=   -4.7860    9.4149    4.9643 Q=    0.4100 A=    0.0000 R=    0.0000 C=    0.0000
 XYZ=   -8.2555    6.5485    3.4595 Q=   -0.8200 A=    0.0000 R=    0.0000 C=    0.0000
 XYZ=   -8.7452    6.5188    4.3310 Q=    0.4100 A=    0.0000 R=    0.0000 C=    0.0000
 XYZ=   -8.6875    5.9197    2.8129 Q=    0.4100 A=    0.0000 R=    0.0000 C=    0.0000
 XYZ=    6.8589    7.6960    5.1689 Q=   -0.8200 A=    0.0000 R=    0.0000 C=    0.0000
 XYZ=    7.7348    7.2833    5.4186 Q=    0.4100 A=    0.0000 R=    0.0000 C=    0.0000
 XYZ=    6.5210    7.2766    4.3263 Q=    0.4100 A=    0.0000 R=    0.0000 C=    0.0000
 XYZ=   -0.4798   -5.7520  -11.0231 Q=   -0.8200 A=    0.0000 R=    0.0000 C=    0.0000
 XYZ=   -1.4463   -5.9677  -10.8833 Q=    0.4100 A=    0.0000 R=    0.0000 C=    0.0000
 XYZ=   -0.2463   -4.9232  -10.5144 Q=    0.4100 A=    0.0000 R=    0.0000 C=    0.0000
 XYZ=    4.1673    5.6349    9.3363 Q=   -0.8200 A=    0.0000 R=    0.0000 C=    0.0000
 XYZ=    4.9041    6.1577    9.7652 Q=    0.4100 A=    0.0000 R=    0.0000 C=    0.0000
 XYZ=    4.3440    5.5530    8.3555 Q=    0.4100 A=    0.0000 R=    0.0000 C=    0.0000
 XYZ=   -6.5080    8.1279   -0.1890 Q=   -0.8200 A=    0.0000 R=    0.0000 C=    0.0000
 XYZ=   -5.6733    8.5883   -0.4915 Q=    0.4100 A=    0.0000 R=    0.0000 C=    0.0000
 XYZ=   -7.1387    8.8011    0.1971 Q=    0.4100 A=    0.0000 R=    0.0000 C=    0.0000
 XYZ=    4.3412   -0.7875   10.1047 Q=   -0.8200 A=    0.0000 R=    0.0000 C=    0.0000
 XYZ=    5.0504   -0.2629    9.6337 Q=    0.4100 A=    0.0000 R=    0.0000 C=    0.0000
 XYZ=    4.7359   -1.6328   10.4651 Q=    0.4100 A=    0.0000 R=    0.0000 C=    0.0000
 XYZ=   -5.2787   -7.3500    7.2593 Q=   -0.8200 A=    0.0000 R=    0.0000 C=    0.0000
 XYZ=   -5.7529   -7.1657    6.3984 Q=    0.4100 A=    0.0000 R=    0.0000 C=    0.0000
 XYZ=   -5.6526   -6.7637    7.9779 Q=    0.4100 A=    0.0000 R=    0.0000 C=    0.0000
 XYZ=   -7.5434    0.9117   -8.6370 Q=   -0.8200 A=    0.0000 R=    0.0000 C=    0.0000
 XYZ=   -8.3703    1.4650   -8.5359 Q=    0.4100 A=    0.0000 R=    0.0000 C=    0.0000
 XYZ=   -7.7603   -0.0478   -8.4571 Q=    0.4100 A=    0.0000 R=    0.0000 C=    0.0000
 XYZ=  -12.4761    0.0319   -1.1722 Q=   -0.8200 A=    0.0000 R=    0.0000 C=    0.0000
 XYZ=  -12.8241    0.9646   -1.0770 Q=    0.4100 A=    0.0000 R=    0.0000 C=    0.0000
 XYZ=  -11.4812    0.0356   -1.0714 Q=    0.4100 A=    0.0000 R=    0.0000 C=    0.0000
 XYZ=    9.0429   -7.1076   -0.7206 Q=   -0.8200 A=    0.0000 R=    0.0000 C=    0.0000
 XYZ=    8.1208   -7.3434   -0.4137 Q=    0.4100 A=    0.0000 R=    0.0000 C=    0.0000
 XYZ=    9.7095   -7.6805   -0.2436 Q=    0.4100 A=    0.0000 R=    0.0000 C=    0.0000
 XYZ=   10.2699    5.1302   -3.0686 Q=   -0.8200 A=    0.0000 R=    0.0000 C=    0.0000
 XYZ=   10.5279    5.8081   -2.3801 Q=    0.4100 A=    0.0000 R=    0.0000 C=    0.0000
 XYZ=   10.5281    4.2177   -2.7510 Q=    0.4100 A=    0.0000 R=    0.0000 C=    0.0000
 XYZ=    4.2440    3.3368    9.8085 Q=   -0.8200 A=    0.0000 R=    0.0000 C=    0.0000
 XYZ=    4.7022    3.1713   10.6819 Q=    0.4100 A=    0.0000 R=    0.0000 C=    0.0000
 XYZ=    4.1931    4.3212    9.6401 Q=    0.4100 A=    0.0000 R=    0.0000 C=    0.0000
 XYZ=   -3.2137    9.8404    3.1672 Q=   -0.8200 A=    0.0000 R=    0.0000 C=    0.0000
 XYZ=   -3.6936    9.3384    3.8868 Q=    0.4100 A=    0.0000 R=    0.0000 C=    0.0000
 XYZ=   -3.8482   10.4719    2.7214 Q=    0.4100 A=    0.0000 R=    0.0000 C=    0.0000
 XYZ=    0.6330    5.6854   10.3630 Q=   -0.8200 A=    0.0000 R=    0.0000 C=    0.0000
 XYZ=   -0.2012    5.6880   10.9145 Q=    0.4100 A=    0.0000 R=    0.0000 C=    0.0000
 XYZ=    0.9606    4.7463   10.2587 Q=    0.4100 A=    0.0000 R=    0.0000 C=    0.0000
 XYZ=   -4.4906   -7.4613   -8.0119 Q=   -0.8200 A=    0.0000 R=    0.0000 C=    0.0000
 XYZ=   -4.1097   -6.9191   -8.7609 Q=    0.4100 A=    0.0000 R=    0.0000 C=    0.0000
 XYZ=   -4.2198   -8.4177   -8.1216 Q=    0.4100 A=    0.0000 R=    0.0000 C=    0.0000
 XYZ=    1.5206   -1.1588  -12.5398 Q=   -0.8200 A=    0.0000 R=    0.0000 C=    0.0000
 XYZ=    2.0839   -0.4633  -12.0937 Q=    0.4100 A=    0.0000 R=    0.0000 C=    0.0000
 XYZ=    1.6990   -1.1513  -13.5238 Q=    0.4100 A=    0.0000 R=    0.0000 C=    0.0000
 XYZ=    0.3236   -8.6298   -9.1557 Q=   -0.8200 A=    0.0000 R=    0.0000 C=    0.0000
 XYZ=    0.5958   -8.2233  -10.0279 Q=    0.4100 A=    0.0000 R=    0.0000 C=    0.0000
 XYZ=    0.0086   -7.9104   -8.5366 Q=    0.4100 A=    0.0000 R=    0.0000 C=    0.0000
 XYZ=   11.8638    2.3334    2.9941 Q=   -0.8200 A=    0.0000 R=    0.0000 C=    0.0000
 XYZ=   12.3580    1.4871    3.1934 Q=    0.4100 A=    0.0000 R=    0.0000 C=    0.0000
 XYZ=   11.1386    2.1476    2.3310 Q=    0.4100 A=    0.0000 R=    0.0000 C=    0.0000
 XYZ=   -8.2200   -1.3969   -8.3852 Q=   -0.8200 A=    0.0000 R=    0.0000 C=    0.0000
 XYZ=   -9.1236   -0.9723   -8.3285 Q=    0.4100 A=    0.0000 R=    0.0000 C=    0.0000
 XYZ=   -8.1900   -2.0128   -9.1725 Q=    0.4100 A=    0.0000 R=    0.0000 C=    0.0000
 XYZ=   -7.2701   -8.4815    4.0835 Q=   -0.8200 A=    0.0000 R=    0.0000 C=    0.0000
 XYZ=   -7.1898   -7.7458    4.7561 Q=    0.4100 A=    0.0000 R=    0.0000 C=    0.0000
 XYZ=   -6.4992   -9.1106    4.1840 Q=    0.4100 A=    0.0000 R=    0.0000 C=    0.0000
 XYZ=   -0.8705   10.4632    3.7206 Q=   -0.8200 A=    0.0000 R=    0.0000 C=    0.0000
 XYZ=   -1.8124   10.1734    3.5508 Q=    0.4100 A=    0.0000 R=    0.0000 C=    0.0000
 XYZ=   -0.5193    9.9960    4.5320 Q=    0.4100 A=    0.0000 R=    0.0000 C=    0.0000
 XYZ=   -4.7670    9.6130   -0.8640 Q=   -0.8200 A=    0.0000 R=    0.0000 C=    0.0000
 XYZ=   -5.1456   10.4732   -0.5222 Q=    0.4100 A=    0.0000 R=    0.0000 C=    0.0000
 XYZ=   -3.7882    9.5762   -0.6624 Q=    0.4100 A=    0.0000 R=    0.0000 C=    0.0000
 XYZ=  -10.2580   -5.7267    4.3899 Q=   -0.8200 A=    0.0000 R=    0.0000 C=    0.0000
 XYZ=   -9.8777   -5.6676    3.4669 Q=    0.4100 A=    0.0000 R=    0.0000 C=    0.0000
 XYZ=  -10.6419   -6.6387    4.5345 Q=    0.4100 A=    0.0000 R=    0.0000 C=    0.0000
 XYZ=   -6.3258    5.1561    8.6595 Q=   -0.8200 A=    0.0000 R=    0.0000 C=    0.0000
 XYZ=   -6.8943    5.9354    8.9233 Q=    0.4100 A=    0.0000 R=    0.0000 C=    0.0000
 XYZ=   -5.4561    5.4870    8.2930 Q=    0.4100 A=    0.0000 R=    0.0000 C=    0.0000
 XYZ=  -11.2720    2.9431   -1.3666 Q=   -0.8200 A=    0.0000 R=    0.0000 C=    0.0000
 XYZ=  -12.2103    2.7645   -1.0705 Q=    0.4100 A=    0.0000 R=    0.0000 C=    0.0000
 XYZ=  -10.9081    3.7284   -0.8656 Q=    0.4100 A=    0.0000 R=    0.0000 C=    0.0000
 XYZ=    8.5113    6.0149    5.7521 Q=   -0.8200 A=    0.0000 R=    0.0000 C=    0.0000
 XYZ=    8.5905    5.1261    5.3006 Q=    0.4100 A=    0.0000 R=    0.0000 C=    0.0000
 XYZ=    8.4095    5.8801    6.7378 Q=    0.4100 A=    0.0000 R=    0.0000 C=    0.0000
 XYZ=   11.1482   -4.5661    0.7545 Q=   -0.8200 A=    0.0000 R=    0.0000 C=    0.0000
 XYZ=   10.4890   -4.7229    0.0190 Q=    0.4100 A=    0.0000 R=    0.0000 C=    0.0000
 XYZ=   11.4368   -5.4443    1.1361 Q=    0.4100 A=    0.0000 R=    0.0000 C=    0.0000
 XYZ=   -3.4083    5.8336   10.6055 Q=   -0.8200 A=    0.0000 R=    0.0000 C=    0.0000
 XYZ=   -3.7647    6.7403   10.3799 Q=    0.4100 A=    0.0000 R=    0.0000 C=    0.0000
 XYZ=   -3.0642    5.3948    9.7754 Q=    0.4100 A=    0.0000 R=    0.0000 C=    0.0000
 XYZ=   -1.3335  -10.4149    2.0700 Q=   -0.8200 A=    0.0000 R=    0.0000 C=    0.0000
 XYZ=   -0.5359  -11.0179    2.0871 Q=    0.4100 A=    0.0000 R=    0.0000 C=    0.0000
 XYZ=   -2.1640  -10.9636    1.9735 Q=    0.4100 A=    0.0000 R=    0.0000 C=    0.0000
 XYZ=    9.1056    8.4375   -1.5728 Q=   -0.8200 A=    0.0000 R=    0.0000 C=    0.0000
 XYZ=    9.1233    8.7649   -2.5175 Q=    0.4100 A=    0.0000 R=    0.0000 C=    0.0000
 XYZ=    8.1655    8.2143   -1.3150 Q=    0.4100 A=    0.0000 R=    0.0000 C=    0.0000
 XYZ=   -4.5970   -4.4403    9.5974 Q=   -0.8200 A=    0.0000 R=    0.0000 C=    0.0000
 XYZ=   -5.0762   -5.2435    9.2433 Q=    0.4100 A=    0.0000 R=    0.0000 C=    0.0000
 XYZ=   -4.5130   -4.5136   10.5912 Q=    0.4100 A=    0.0000 R=    0.0000 C=    0.0000
 XYZ=   -5.4543    3.8280  -10.1736 Q=   -0.8200 A=    0.0000 R=    0.0000 C=    0.0000
 XYZ=   -6.1115    3.0941  -10.3456 Q=    0.4100 A=    0.0000 R=    0.0000 C=    0.0000
 XYZ=   -4.5355    3.4412  -10.0958 Q=    0.4100 A=    0.0000 R=    0.0000 C=    0.0000
 XYZ=   -9.0237    6.0192    5.7799 Q=   -0.8200 A=    0.0000 R=    0.0000 C=    0.0000
 XYZ=   -8.7637    5.0574    5.8663 Q=    0.4100 A=    0.0000 R=    0.0000 C=    0.0000
 XYZ=   -8.3684    6.5875    6.2776 Q=    0.4100 A=    0.0000 R=    0.0000 C=    0.0000
 XYZ=    9.5124   -7.0282   -3.0658 Q=   -0.8200 A=    0.0000 R=    0.0000 C=    0.0000
 XYZ=    9.1720   -7.0396   -2.1256 Q=    0.4100 A=    0.0000 R=    0.0000 C=    0.0000
 XYZ=   10.2730   -7.6717   -3.1527 Q=    0.4100 A=    0.0000 R=    0.0000 C=    0.0000
 XYZ=  -10.5855    3.3922   -3.6546 Q=   -0.8200 A=    0.0000 R=    0.0000 C=    0.0000
 XYZ=  -10.8876    3.1465   -2.7335 Q=    0.4100 A=    0.0000 R=    0.0000 C=    0.0000
 XYZ=  -11.1619    2.9303   -4.3287 Q=    0.4100 A=    0.0000 R=    0.0000 C=    0.0000
 XYZ=   -5.0191    9.4407   -3.3894 Q=   -0.8200 A=    0.0000 R=    0.0000 C=    0.0000
 XYZ=   -4.9838    9.5106   -2.3924 Q=    0.4100 A=    0.0000 R=    0.0000 C=    0.0000
 XYZ=   -4.9993    8.4774   -3.6569 Q=    0.4100 A=    0.0000 R=    0.0000 C=    0.0000
 XYZ=   -2.4396    4.3033  -11.1583 Q=   -0.8200 A=    0.0000 R=    0.0000 C=    0.0000
 XYZ=   -3.0336    3.7126  -10.6122 Q=    0.4100 A=    0.0000 R=    0.0000 C=    0.0000
 XYZ=   -1.8417    3.7395  -11.7281 Q=    0.4100 A=    0.0000 R=    0.0000 C=    0.0000
 XYZ=    0.7598    2.2904   12.3287 Q=   -0.8200 A=    0.0000 R=    0.0000 C=    0.0000
 XYZ=    1.2069    2.5582   11.4752 Q=    0.4100 A=    0.0000 R=    0.0000 C=    0.0000
 XYZ=    1.2045    1.4734   12.6958 Q=    0.4100 A=    0.0000 R=    0.0000 C=    0.0000
 XYZ=   -0.7661    3.0309  -12.4763 Q=   -0.8200 A=    0.0000 R=    0.0000 C=    0.0000
 XYZ=   -0.2197    3.4269  -11.7383 Q=    0.4100 A=    0.0000 R=    0.0000 C=    0.0000
 XYZ=   -0.9393    2.0654  -12.2816 Q=    0.4100 A=    0.0000 R=    0.0000 C=    0.0000
 XYZ=   -6.7732    1.9305  -10.5695 Q=   -0.8200 A=    0.0000 R=    0.0000 C=    0.0000
 XYZ=   -6.9967    1.5119   -9.6893 Q=    0.4100 A=    0.0000 R=    0.0000 C=    0.0000
 XYZ=   -7.5974    1.9807  -11.1336 Q=    0.4100 A=    0.0000 R=    0.0000 C=    0.0000
 XYZ=   -3.0582  -11.5193   -3.4148 Q=   -0.8200 A=    0.0000 R=    0.0000 C=    0.0000
 XYZ=   -2.5883  -10.8508   -3.9914 Q=    0.4100 A=    0.0000 R=    0.0000 C=    0.0000
 XYZ=   -3.6793  -12.0658   -3.9765 Q=    0.4100 A=    0.0000 R=    0.0000 C=    0.0000
 XYZ=    7.2452    9.1079   -5.2207 Q=   -0.8200 A=    0.0000 R=    0.0000 C=    0.0000
 XYZ=    6.7193    8.2593   -5.1619 Q=    0.4100 A=    0.0000 R=    0.0000 C=    0.0000
 XYZ=    8.0707    9.0277   -4.6620 Q=    0.4100 A=    0.0000 R=    0.0000 C=    0.0000
 XYZ=   -8.1363   -5.2302    8.3241 Q=   -0.8200 A=    0.0000 R=    0.0000 C=    0.0000
 XYZ=   -8.2780   -5.1513    7.3373 Q=    0.4100 A=    0.0000 R=    0.0000 C=    0.0000
 XYZ=   -8.2608   -4.3346    8.7514 Q=    0.4100 A=    0.0000 R=    0.0000 C=    0.0000
 XYZ=   -7.7066    3.3849    8.5347 Q=   -0.8200 A=    0.0000 R=    0.0000 C=    0.0000
 XYZ=   -7.9889    3.0663    9.4396 Q=    0.4100 A=    0.0000 R=    0.0000 C=    0.0000
 XYZ=   -6.9827    4.0678    8.6328 Q=    0.4100 A=    0.0000 R=    0.0000 C=    0.0000
 XYZ=   -9.4926    1.6980    8.3370 Q=   -0.8200 A=    0.0000 R=    0.0000 C=    0.0000
 XYZ=   -9.2346    0.8006    7.9790 Q=    0.4100 A=    0.0000 R=    0.0000 C=    0.0000
 XYZ=   -8.7730    2.3600    8.1275 Q=    0.4100 A=    0.0000 R=    0.0000 C=    0.0000
 XYZ=   -9.7705    3.4496   -6.7111 Q=   -0.8200 A=    0.0000 R=    0.0000 C=    0.0000
 XYZ=  -10.3038    4.2012   -6.3226 Q=    0.4100 A=    0.0000 R=    0.0000 C=    0.0000
 XYZ=   -8.8079    3.7156   -6.7621 Q=    0.4100 A=    0.0000 R=    0.0000 C=    0.0000
 XYZ=    9.8782    2.3522    5.8236 Q=   -0.8200 A=    0.0000 R=    0.0000 C=    0.0000
 XYZ=   10.7791    2.7130    5.5824 Q=    0.4100 A=    0.0000 R=    0.0000 C=    0.0000
 XYZ=    9.9865    1.4993    6.3344 Q=    0.4100 A=    0.0000 R=    0.0000 C=    0.0000
 XYZ=   11.7726   -1.8275    3.6915 Q=   -0.8200 A=    0.0000 R=    0.0000 C=    0.0000
 XYZ=   11.2966   -2.2375    2.9134 Q=    0.4100 A=    0.0000 R=    0.0000 C=    0.0000
 XYZ=   11.2386   -1.9747    4.5241 Q=    0.4100 A=    0.0000 R=    0.0000 C=    0.0000
 XYZ=    8.4737   -7.9657    3.5321 Q=   -0.8200 A=    0.0000 R=    0.0000 C=    0.0000
 XYZ=    7.7439   -7.4451    3.0887 Q=    0.4100 A=    0.0000 R=    0.0000 C=    0.0000
 XYZ=    8.2152   -8.1627    4.4778 Q=    0.4100 A=    0.0000 R=    0.0000 C=    0.0000
 XYZ=   -8.0219   -2.9514  -10.0528 Q=   -0.8200 A=    0.0000 R=    0.0000 C=    0.0000
 XYZ=   -7.4798   -3.4260   -9.3593 Q=    0.4100 A=    0.0000 R=    0.0000 C=    0.0000
 XYZ=   -8.4751   -3.6231  -10.6388 Q=    0.4100 A=    0.0000 R=    0.0000 C=    0.0000
[...]
    38  H    0.000000   0.000007   0.000000   0.000000   0.000000   0.000000
    39  O    0.000000   0.000000  -0.000458   0.000005  -0.000148  -0.001302
    40  H    0.000000   0.000000   0.000018   0.000000  -0.000002   0.000059
    41  H    0.000000   0.000000  -0.000006   0.000000  -0.000003  -0.000004
    42  O    0.000000   0.000000   0.000345   0.000048   0.000025  -0.066476
    43  H    0.000000   0.000000  -0.000003   0.000000   0.000000   0.000150
    44  H    0.000000   0.000000  -0.000013   0.000009   0.000040   0.046977
    45  O    0.000000   0.000000   0.000000   0.000000   0.000000   0.000029
    46  H    0.000000   0.000000   0.000000   0.000000   0.000000  -0.000007
    47  H    0.000000   0.000000   0.000000   0.000000   0.000000   0.000000
    48  O   -0.000280   0.001484   0.000000   0.000000   0.000000   0.000000
    49  H   -0.000002   0.000001   0.000000   0.000000   0.000000   0.000000
    50  H    0.000000  -0.000021   0.000000   0.000000   0.000000   0.000000
              31         32         33         34         35         36
     1  C    0.000060   0.000162  -0.001009  -0.000076   0.000242  -0.000768
     2  H    0.000000   0.000006   0.000040   0.000001  -0.000005   0.000000
     3  H    0.000000   0.000000  -0.000011   0.000000   0.000000   0.000000
     4  C    0.000045  -0.001077   0.003656  -0.000027  -0.000443   0.002771
     5  H    0.000000   0.000000   0.000000   0.000000   0.000000   0.000000
     6  C    0.000009   0.000146  -0.000585  -0.000023   0.000120   0.001333
     7  H    0.000000   0.000000   0.000000   0.000000   0.000000   0.000147
     8  O    0.000000  -0.000009   0.000043   0.000000  -0.000008  -0.003901
     9  O   -0.000003  -0.000035   0.000024   0.000001  -0.000005  -0.000477
    10  H    0.000000   0.000000   0.000002   0.000000   0.000000   0.000006
    11  H    0.000000   0.000000   0.000000   0.000000   0.000000   0.000014
    12  O    0.000000   0.000000   0.000000   0.000000   0.000000  -0.035994
    13  H    0.000000   0.000000   0.000000   0.000000   0.000000   0.001843
    14  H    0.000000   0.000000   0.000000   0.000000   0.000000   0.003835
    15  O   -0.005179   0.005549  -0.006774   0.000285  -0.001037   0.000000
    16  H    0.000032   0.000028   0.000019   0.000000   0.000001   0.000000
    17  H   -0.000001   0.001574   0.005319   0.000009  -0.000122   0.000000
    18  O    0.000028   0.000268  -0.000572   0.000000   0.000024   0.000006
    19  H   -0.000020  -0.000173   0.000019  -0.000024  -0.000005   0.000000
    20  H    0.000000  -0.000010   0.000040  -0.000002  -0.000002  -0.000002
    21  O    0.000000   0.000000   0.000000   0.000000   0.000000  -0.059956
    22  H    0.000000   0.000000   0.000000   0.000000   0.000000   0.006268
    23  H    0.000000   0.000000   0.000000   0.000000   0.000000  -0.000425
    24  O    0.000000   0.000000   0.000000   0.000000   0.000000   0.000341
    25  H    0.000000   0.000000   0.000000   0.000000   0.000000  -0.000027
    26  H    0.000000   0.000000   0.000000   0.000000   0.000000   0.000340
    27  O   -0.000998   0.000822  -0.084191   0.002339  -0.001943   0.000000
    28  H   -0.000018   0.000460  -0.000659   0.001364  -0.002573   0.000000
    29  H   -0.000806  -0.001297   0.001631   0.000007  -0.000060   0.000000
    30  O    0.155392   0.119070  -0.134276   0.001427   0.001905   0.000000
    31  H    0.117592  -0.003423   0.003847  -0.000058   0.000020   0.000000
    32  H   -0.003423   0.219709   0.040193  -0.000170   0.000114   0.000000
    33  O    0.003847   0.040193   8.962293   0.200446   0.202679   0.000000
    34  H   -0.000058  -0.000170   0.200446   0.175332  -0.003197   0.000000
    35  H    0.000020   0.000114   0.202679  -0.003197   0.149841   0.000000
    36  O    0.000000   0.000000   0.000000   0.000000   0.000000   9.163696
    37  H    0.000000   0.000000   0.000000   0.000000   0.000000   0.185808
    38  H    0.000000   0.000000   0.000000   0.000000   0.000000   0.085919
    39  O    0.000096   0.000025   0.000048   0.000000  -0.000002   0.000000
    40  H    0.000001   0.000000   0.000000   0.000000   0.000000   0.000000
    41  H   -0.000001   0.000000  -0.000001   0.000000   0.000000   0.000000
    42  O   -0.003240  -0.000492  -0.006413   0.000451   0.000009   0.000000
    43  H    0.000042   0.000088   0.000143  -0.000001   0.000000   0.000000
    44  H   -0.000400   0.000784   0.003944  -0.000092  -0.000055   0.000000
    45  O    0.000000   0.000000   0.000001   0.000000   0.000000  -0.000001
    46  H    0.000000   0.000000   0.000000   0.000000   0.000000   0.000000
    47  H    0.000000   0.000000   0.000000   0.000000   0.000000   0.000000
    48  O    0.000000   0.000000   0.000000   0.000000   0.000000  -0.100574
    49  H    0.000000   0.000000   0.000000   0.000000   0.000000   0.000687
    50  H    0.000000   0.000000   0.000000   0.000000   0.000000   0.031471
              37         38         39         40         41         42
     1  C    0.000119  -0.000188   0.001692  -0.000085   0.001891   0.000322
     2  H    0.000000   0.000000  -0.000034   0.000000   0.000000  -0.000075
     3  H    0.000000   0.000000   0.000006   0.000002   0.000021  -0.000008
     4  C   -0.000168  -0.000403   0.003117   0.000015  -0.001313  -0.003617
     5  H    0.000000   0.000000  -0.000004   0.000000   0.000000   0.000000
     6  C    0.000160  -0.000259  -0.000466  -0.000001   0.000103   0.000337
     7  H   -0.000003  -0.000041   0.000000   0.000000   0.000000   0.000000
     8  O   -0.000039   0.000776   0.000001   0.000000   0.000000   0.000004
     9  O    0.000027   0.000019   0.000002   0.000000   0.000000  -0.003405
    10  H    0.000000   0.000000   0.000000   0.000000   0.000000   0.000218
    11  H   -0.000008   0.000000   0.000000   0.000000   0.000000   0.000033
    12  O   -0.000096   0.010866   0.000000   0.000000   0.000000   0.000000
    13  H   -0.000018  -0.000200   0.000000   0.000000   0.000000   0.000000
    14  H   -0.000217  -0.001207   0.000000   0.000000   0.000000   0.000000
    15  O    0.000000   0.000000  -0.075979   0.000565   0.002504  -0.002034
    16  H    0.000000   0.000000  -0.002934   0.001148   0.000773   0.000111
    17  H    0.000000   0.000000   0.004704  -0.000003  -0.000186  -0.003426
    18  O    0.000002   0.000000   0.000002   0.000000   0.000000  -0.112913
    19  H    0.000000   0.000000   0.000001   0.000000   0.000000  -0.054715
    20  H    0.000000   0.000000   0.000000   0.000000   0.000000   0.004778
    21  O   -0.000702   0.079311   0.000000   0.000000   0.000000   0.000000
    22  H   -0.000061  -0.002175   0.000000   0.000000   0.000000   0.000000
    23  H    0.000048  -0.002462   0.000000   0.000000   0.000000   0.000000
    24  O   -0.000003   0.000148   0.000000   0.000000   0.000000   0.000000
    25  H    0.000000   0.000000   0.000000   0.000000   0.000000   0.000000
    26  H   -0.000002   0.000007   0.000000   0.000000   0.000000   0.000000
    27  O    0.000000   0.000000  -0.000458   0.000018  -0.000006   0.000345
    28  H    0.000000   0.000000   0.000005   0.000000   0.000000   0.000048
    29  H    0.000000   0.000000  -0.000148  -0.000002  -0.000003   0.000025
    30  O    0.000000   0.000000  -0.001302   0.000059  -0.000004  -0.066476
    31  H    0.000000   0.000000   0.000096   0.000001  -0.000001  -0.003240
    32  H    0.000000   0.000000   0.000025   0.000000   0.000000  -0.000492
    33  O    0.000000   0.000000   0.000048   0.000000  -0.000001  -0.006413
    34  H    0.000000   0.000000   0.000000   0.000000   0.000000   0.000451
    35  H    0.000000   0.000000  -0.000002   0.000000   0.000000   0.000009
    36  O    0.185808   0.085919   0.000000   0.000000   0.000000   0.000000
    37  H    0.153619  -0.002119   0.000000   0.000000   0.000000   0.000000
    38  H   -0.002119   0.195086   0.000000   0.000000   0.000000   0.000000
    39  O    0.000000   0.000000   8.747187   0.204447   0.236734  -0.000054
    40  H    0.000000   0.000000   0.204447   0.154799  -0.006743   0.000001
    41  H    0.000000   0.000000   0.236734  -0.006743   0.269238  -0.000001
    42  O    0.000000   0.000000  -0.000054   0.000001  -0.000001   9.175012
    43  H    0.000000   0.000000   0.000002   0.000000   0.000000   0.207436
    44  H    0.000000   0.000000   0.000009   0.000000   0.000000   0.126039
    45  O    0.000000   0.000000   0.000000   0.000000   0.000000   0.000229
    46  H    0.000000   0.000000   0.000000   0.000000   0.000000   0.000033
    47  H    0.000000   0.000000   0.000000   0.000000   0.000000  -0.000013
    48  O   -0.000849   0.002200   0.000000   0.000000   0.000000   0.000000
    49  H   -0.000008   0.000016   0.000000   0.000000   0.000000   0.000000
    50  H   -0.003220   0.001591   0.000000   0.000000   0.000000   0.000000
              43         44         45         46         47         48
     1  C   -0.000022  -0.000178  -0.005425  -0.001511   0.000824  -0.000236
     2  H    0.000001   0.000004   0.000177  -0.000001  -0.000002   0.000000
     3  H    0.000000   0.000000   0.000102  -0.000002  -0.000003   0.000000
     4  C   -0.000064   0.000931   0.009293   0.000430  -0.000675   0.004248
     5  H    0.000000   0.000000   0.000051   0.000000  -0.000001   0.000000
     6  C    0.000009  -0.000114  -0.005918   0.000704   0.000328   0.002261
     7  H    0.000000   0.000000   0.000024   0.000000   0.000000   0.000088
     8  O    0.000000   0.000001   0.000123  -0.000012  -0.000016  -0.004328
     9  O   -0.000156   0.000091  -0.113703  -0.000198   0.000878  -0.000073
    10  H    0.000011  -0.000005  -0.031343   0.000505   0.001882   0.000000
    11  H   -0.000002   0.000000   0.003882   0.000039  -0.000141   0.000002
    12  O    0.000000   0.000000  -0.000015   0.000000   0.000000  -0.073375
    13  H    0.000000   0.000000   0.000001   0.000000   0.000000  -0.003141
    14  H    0.000000   0.000000   0.000000   0.000000   0.000000   0.058278
    15  O    0.000071  -0.001371  -0.000005   0.000000   0.000000   0.000000
    16  H   -0.000002   0.000045   0.000000   0.000000   0.000000   0.000000
    17  H    0.000034   0.000464   0.000000   0.000000   0.000000   0.000000
    18  O    0.001934  -0.000603  -0.003945   0.000255  -0.000036   0.000002
    19  H    0.000916   0.002136   0.000266   0.000010   0.000003   0.000000
    20  H   -0.000361  -0.000415   0.000563   0.000079  -0.000004   0.000000
    21  O    0.000000   0.000000  -0.000001   0.000000   0.000000  -0.000256
    22  H    0.000000   0.000000   0.000000   0.000000   0.000000  -0.000209
    23  H    0.000000   0.000000   0.000000   0.000000   0.000000  -0.000140
    24  O    0.000000   0.000000   0.000000   0.000000   0.000000  -0.001068
    25  H    0.000000   0.000000   0.000000   0.000000   0.000000  -0.000280
    26  H    0.000000   0.000000   0.000000   0.000000   0.000000   0.001484
    27  O   -0.000003  -0.000013   0.000000   0.000000   0.000000   0.000000
    28  H    0.000000   0.000009   0.000000   0.000000   0.000000   0.000000
    29  H    0.000000   0.000040   0.000000   0.000000   0.000000   0.000000
    30  O    0.000150   0.046977   0.000029  -0.000007   0.000000   0.000000
    31  H    0.000042  -0.000400   0.000000   0.000000   0.000000   0.000000
    32  H    0.000088   0.000784   0.000000   0.000000   0.000000   0.000000
    33  O    0.000143   0.003944   0.000001   0.000000   0.000000   0.000000
    34  H   -0.000001  -0.000092   0.000000   0.000000   0.000000   0.000000
    35  H    0.000000  -0.000055   0.000000   0.000000   0.000000   0.000000
    36  O    0.000000   0.000000  -0.000001   0.000000   0.000000  -0.100574
    37  H    0.000000   0.000000   0.000000   0.000000   0.000000  -0.000849
    38  H    0.000000   0.000000   0.000000   0.000000   0.000000   0.002200
    39  O    0.000002   0.000009   0.000000   0.000000   0.000000   0.000000
    40  H    0.000000   0.000000   0.000000   0.000000   0.000000   0.000000
    41  H    0.000000   0.000000   0.000000   0.000000   0.000000   0.000000
    42  O    0.207436   0.126039   0.000229   0.000033  -0.000013   0.000000
    43  H    0.207747  -0.003520   0.000023  -0.000011   0.000001   0.000000
    44  H   -0.003520   0.182097   0.000014   0.000000   0.000000   0.000000
    45  O    0.000023   0.000014   8.908241   0.210614   0.206357  -0.000001
    46  H   -0.000011   0.000000   0.210614   0.171697  -0.005226   0.000000
    47  H    0.000001   0.000000   0.206357  -0.005226   0.195946   0.000000
    48  O    0.000000   0.000000  -0.000001   0.000000   0.000000   9.055516
    49  H    0.000000   0.000000   0.000000   0.000000   0.000000   0.203183
    50  H    0.000000   0.000000   0.000000   0.000000   0.000000   0.105487
              49         50
     1  C    0.000012   0.000144
     2  H    0.000000   0.000000
     3  H    0.000000   0.000000
     4  C   -0.000016  -0.000354
     5  H    0.000000   0.000000
     6  C   -0.000160  -0.000644
     7  H    0.000001   0.000015
     8  O    0.000038  -0.000128
     9  O    0.000001   0.000029
    10  H    0.000000   0.000000
    11  H   -0.000001  -0.000003
    12  O    0.001531   0.011309
    13  H   -0.000154  -0.001484
    14  H    0.000320  -0.005232
    15  O    0.000000   0.000000
    16  H    0.000000   0.000000
    17  H    0.000000   0.000000
    18  O    0.000000   0.000000
    19  H    0.000000   0.000000
    20  H    0.000000   0.000000
    21  O   -0.000023   0.000715
    22  H    0.000004  -0.000751
    23  H    0.000001  -0.000071
    24  O    0.000041  -0.000078
    25  H   -0.000002   0.000000
    26  H    0.000001  -0.000021
    27  O    0.000000   0.000000
    28  H    0.000000   0.000000
    29  H    0.000000   0.000000
    30  O    0.000000   0.000000
    31  H    0.000000   0.000000
    32  H    0.000000   0.000000
    33  O    0.000000   0.000000
    34  H    0.000000   0.000000
    35  H    0.000000   0.000000
    36  O    0.000687   0.031471
    37  H   -0.000008  -0.003220
    38  H    0.000016   0.001591
    39  O    0.000000   0.000000
    40  H    0.000000   0.000000
    41  H    0.000000   0.000000
    42  O    0.000000   0.000000
    43  H    0.000000   0.000000
    44  H    0.000000   0.000000
    45  O    0.000000   0.000000
    46  H    0.000000   0.000000
    47  H    0.000000   0.000000
    48  O    0.203183   0.105487
    49  H    0.151008  -0.000003
    50  H   -0.000003   0.233260
 Mulliken charges:
               1
     1  C   -0.291711
     2  H    0.268831
     3  H    0.224576
     4  C   -0.283267
     5  H    0.220382
     6  C    0.088688
     7  H    0.161145
     8  O   -0.385333
     9  O   -1.154752
    10  H    0.626830
    11  H    0.512036
    12  O   -1.252035
    13  H    0.516157
    14  H    0.639294
    15  O   -1.219336
    16  H    0.617976
    17  H    0.614769
    18  O   -1.310608
    19  H    0.629605
    20  H    0.631192
    21  O   -1.236105
    22  H    0.549381
    23  H    0.717722
    24  O   -1.206966
    25  H    0.593804
    26  H    0.622898
    27  O   -1.178805
    28  H    0.563427
    29  H    0.560908
    30  O   -1.362871
    31  H    0.736983
    32  H    0.617689
    33  O   -1.189895
    34  H    0.622009
    35  H    0.654504
    36  O   -1.282357
    37  H    0.667731
    38  H    0.633115
    39  O   -1.116695
    40  H    0.645779
    41  H    0.496994
    42  O   -1.258547
    43  H    0.585534
    44  H    0.643183
    45  O   -1.179633
    46  H    0.622602
    47  H    0.599902
    48  O   -1.248220
    49  H    0.643525
    50  H    0.627969
 Sum of Mulliken charges =   0.00000
 Mulliken charges with hydrogens summed into heavy atoms:
               1
     1  C    0.201696
     4  C   -0.062886
     6  C    0.249833
     8  O   -0.385333
     9  O   -0.015885
    12  O   -0.096584
    15  O    0.013409
    18  O   -0.049811
    21  O    0.030997
    24  O    0.009736
    27  O   -0.054470
    30  O   -0.008200
    33  O    0.086618
    36  O    0.018488
    39  O    0.026079
    42  O   -0.029831
    45  O    0.042871
    48  O    0.023273
 Electronic spatial extent (au):  <R**2>=          12594.1468
 Charge=              0.0000 electrons
 Dipole moment (field-independent basis, Debye):
    X=             -9.5955    Y=              2.9588    Z=             10.2606  Tot=             14.3565
 Quadrupole moment (field-independent basis, Debye-Ang):
   XX=           -127.2436   YY=           -159.6981   ZZ=            -73.9492
   XY=            -27.0654   XZ=            -56.1639   YZ=             10.8619
 Traceless Quadrupole moment (field-independent basis, Debye-Ang):
   XX=             -6.9467   YY=            -39.4011   ZZ=             46.3478
   XY=            -27.0654   XZ=            -56.1639   YZ=             10.8619
 Octapole moment (field-independent basis, Debye-Ang**2):
  XXX=           -506.7306  YYY=              4.9300  ZZZ=             84.8380  XYY=            150.7621
  XXY=            199.8764  XXZ=             26.8717  XZZ=           -231.7055  YZZ=             45.3532
  YYZ=            123.6543  XYZ=             95.5910
 Hexadecapole moment (field-independent basis, Debye-Ang**3):
 XXXX=         -10220.5141 YYYY=          -2899.3460 ZZZZ=          -1410.3613 XXXY=           -741.2191
 XXXZ=          -2358.6840 YYYX=           -259.8763 YYYZ=            199.0999 ZZZX=           -385.1785
 ZZZY=             61.6496 XXYY=          -2281.6600 XXZZ=          -1910.9586 YYZZ=           -664.3831
 XXYZ=           -227.3831 YYXZ=           -598.4790 ZZXY=             89.0086
 N-N= 1.128679077266D+03 E-N=-6.225226488859D+03  KE= 1.250011671914D+03
 Leave Link  601 at Fri Sep 14 18:08:34 2018, MaxMem=    33554432 cpu:         2.1
 (Enter /usr/local/pacerepov1/gaussian/G09D01LINDA/g09/l9999.exe)

 Test job not archived.
 1\1\GINC-RICH133-G13-25-L\SP\RLC-wPBE TD-FC\6-31+G(d)\C3H32O15\ROOT\14
 -Sep-2018\0\\#p td=(nstates=15)/6-31+g(d) lc-wpbe charge\\Acroleina in
  Water\\0,1\C,0,0.485154,0.480443,-1.430142\H,0,1.461403,0.187773,-1.0
 55732\H,0,0.429244,0.878853,-2.437062\C,0,-0.605127,0.346563,-0.658432
 \H,0,-1.591686,0.632893,-1.012412\C,0,-0.508516,-0.199107,0.712798\H,0
 ,-1.458487,-0.272107,1.272438\O,0,0.544883,-0.561317,1.236519\O,0,2.19
 3942,2.104482,1.01054\H,0,1.823022,2.985862,0.71783\H,0,1.462812,1.551
 252,1.40978\O,0,-1.202018,-0.874418,3.66346\H,0,-0.890858,-0.263288,2.
 93564\H,0,-0.837688,-0.560878,4.54039\O,0,3.249312,-0.223038,-4.33454\
 H,0,2.737982,0.406742,-4.91935\H,0,3.802212,0.299462,-3.68543\O,0,4.58
 3081,2.211922,0.80667\H,0,4.843681,2.314362,-0.15335\H,0,3.596822,2.05
 9112,0.8698\O,0,-0.099418,-2.872538,2.863\H,0,-0.661758,-2.055808,2.73
 343\H,0,-0.581738,-3.518878,3.45428\O,0,-3.479628,-0.784638,4.38233\H,
 0,-3.355828,-1.409359,5.15334\H,0,-2.635368,-0.743328,3.84796\O,0,4.64
 4941,-2.271858,-3.95681\H,0,5.101021,-2.011148,-3.10588\H,0,4.102821,-
 1.502048,-4.2938\O,0,4.941581,0.757312,-3.00151\H,0,5.600471,0.758292,
 -3.75377\H,0,5.118721,-0.025028,-2.40434\O,0,5.418962,-1.307648,-2.030
 38\H,0,6.268281,-1.112698,-1.53975\H,0,4.837431,-1.896538,-1.46905\O,0
 ,1.561832,-1.821048,4.46254\H,0,2.296812,-1.349588,3.97512\H,0,1.02745
 2,-2.364368,3.81502\O,0,1.944852,1.123702,-5.93979\H,0,2.197282,1.6241
 92,-6.76793\H,0,0.993472,1.324342,-5.7061\O,0,5.150501,2.372282,-1.364
 35\H,0,4.917141,3.287982,-1.69164\H,0,5.013891,1.710092,-2.1012\O,0,1.
 382582,4.182221,0.5494\H,0,1.946172,4.594582,-0.16637\H,0,0.424692,4.4
 29641,0.40334\O,0,0.140332,-0.369938,5.59458\H,0,0.729322,0.220692,6.1
 4618\H,0,0.705592,-0.951228,5.00926\\Version=EM64L-G09RevD.01\State=1-
 A\HF=-1758.9570695\RMSD=3.144e-09\PG=C01 [X(C3H32O15)]\\@


 OPTIMIST - A PESSIMIST WHO LACKS EXPERIENCE
 Job cpu time:       0 days  3 hours  3 minutes 13.0 seconds.
 File lengths (MBytes):  RWF=    792 Int=      0 D2E=      0 Chk=     96 Scr=      2
 Normal termination of Gaussian 09 at Fri Sep 14 18:08:39 2018.
