 Entering Gaussian System, Link 0=g09
 Input=Acroleina_water_15_62c.gjf
 Output=Acroleina_water_15_62c.log
 Initial command:
 /usr/local/pacerepov1/gaussian/G09D01LINDA/g09/l1.exe /nv/hp18/holiveira7/scratch/22411965/Gau-22156.inp -scrdir=/nv/hp18/holiveira7/scratch/22411965/
 Entering Link 1 = /usr/local/pacerepov1/gaussian/G09D01LINDA/g09/l1.exe PID=     22157.
  
 Copyright (c) 1988,1990,1992,1993,1995,1998,2003,2009,2013,
            Gaussian, Inc.  All Rights Reserved.
  
 This is part of the Gaussian(R) 09 program.  It is based on
 the Gaussian(R) 03 system (copyright 2003, Gaussian, Inc.),
 the Gaussian(R) 98 system (copyright 1998, Gaussian, Inc.),
 the Gaussian(R) 94 system (copyright 1995, Gaussian, Inc.),
 the Gaussian 92(TM) system (copyright 1992, Gaussian, Inc.),
 the Gaussian 90(TM) system (copyright 1990, Gaussian, Inc.),
 the Gaussian 88(TM) system (copyright 1988, Gaussian, Inc.),
 the Gaussian 86(TM) system (copyright 1986, Carnegie Mellon
 University), and the Gaussian 82(TM) system (copyright 1983,
 Carnegie Mellon University). Gaussian is a federally registered
 trademark of Gaussian, Inc.
  
 This software contains proprietary and confidential information,
 including trade secrets, belonging to Gaussian, Inc.
  
 This software is provided under written license and may be
 used, copied, transmitted, or stored only in accord with that
 written license.
  
 The following legend is applicable only to US Government
 contracts under FAR:
  
                    RESTRICTED RIGHTS LEGEND
  
 Use, reproduction and disclosure by the US Government is
 subject to restrictions as set forth in subparagraphs (a)
 and (c) of the Commercial Computer Software - Restricted
 Rights clause in FAR 52.227-19.
  
 Gaussian, Inc.
 340 Quinnipiac St., Bldg. 40, Wallingford CT 06492
  
  
 ---------------------------------------------------------------
 Warning -- This program may not be used in any manner that
 competes with the business of Gaussian, Inc. or will provide
 assistance to any competitor of Gaussian, Inc.  The licensee
 of this program is prohibited from giving any competitor of
 Gaussian, Inc. access to this program.  By using this program,
 the user acknowledges that Gaussian, Inc. is engaged in the
 business of creating and licensing software in the field of
 computational chemistry and represents and warrants to the
 licensee that it is not a competitor of Gaussian, Inc. and that
 it will not use this program in any manner prohibited above.
 ---------------------------------------------------------------
  

 Cite this work as:
 Gaussian 09, Revision D.01,
 M. J. Frisch, G. W. Trucks, H. B. Schlegel, G. E. Scuseria, 
 M. A. Robb, J. R. Cheeseman, G. Scalmani, V. Barone, B. Mennucci, 
 G. A. Petersson, H. Nakatsuji, M. Caricato, X. Li, H. P. Hratchian, 
 A. F. Izmaylov, J. Bloino, G. Zheng, J. L. Sonnenberg, M. Hada, 
 M. Ehara, K. Toyota, R. Fukuda, J. Hasegawa, M. Ishida, T. Nakajima, 
 Y. Honda, O. Kitao, H. Nakai, T. Vreven, J. A. Montgomery, Jr., 
 J. E. Peralta, F. Ogliaro, M. Bearpark, J. J. Heyd, E. Brothers, 
 K. N. Kudin, V. N. Staroverov, T. Keith, R. Kobayashi, J. Normand, 
 K. Raghavachari, A. Rendell, J. C. Burant, S. S. Iyengar, J. Tomasi, 
 M. Cossi, N. Rega, J. M. Millam, M. Klene, J. E. Knox, J. B. Cross, 
 V. Bakken, C. Adamo, J. Jaramillo, R. Gomperts, R. E. Stratmann, 
 O. Yazyev, A. J. Austin, R. Cammi, C. Pomelli, J. W. Ochterski, 
 R. L. Martin, K. Morokuma, V. G. Zakrzewski, G. A. Voth, 
 P. Salvador, J. J. Dannenberg, S. Dapprich, A. D. Daniels, 
 O. Farkas, J. B. Foresman, J. V. Ortiz, J. Cioslowski, 
 and D. J. Fox, Gaussian, Inc., Wallingford CT, 2013.
 
 ******************************************
 Gaussian 09:  EM64L-G09RevD.01 24-Apr-2013
                14-Sep-2018 
 ******************************************
 %chk=Acrolina_Din_62.chk
 %nprocshared=10
 Will use up to   10 processors via shared memory.
 -------------------------------------------
 #p td=(nstates=15)/6-31+g(d) lc-wpbe charge
 -------------------------------------------
 1/18=10,28=-2,38=1,125=101/1;
 2/12=2,17=6,18=5,40=1/2;
 3/5=1,6=6,7=11,11=9,16=1,25=1,30=1,74=-41/1,2,8,3;
 4//1;
 5/5=2,38=5/2;
 8/6=1,10=2,108=15/1;
 9/41=15,42=1,70=2/14;
 6/7=2,8=2,9=2,10=2/1;
 99/5=1,9=1/99;
 Leave Link    1 at Fri Sep 14 17:22:45 2018, MaxMem=           0 cpu:         4.9
 (Enter /usr/local/pacerepov1/gaussian/G09D01LINDA/g09/l101.exe)
 ------------------
 Acroleina in Water
 ------------------
 Symbolic Z-matrix:
 Charge =  0 Multiplicity = 1
 C                     0.48515   0.48044  -1.43014 
 H                     1.4614    0.18777  -1.05573 
 H                     0.42924   0.87885  -2.43706 
 C                    -0.60513   0.34656  -0.65843 
 H                    -1.59169   0.63289  -1.01241 
 C                    -0.50852  -0.19911   0.7128 
 H                    -1.45849  -0.27211   1.27244 
 O                     0.54488  -0.56132   1.23652 
 O                     0.48472  -2.87482   1.13171 
 H                     0.82408  -2.1272    0.56081 
 H                     0.92425  -2.83484   2.02908 
 O                    -1.94679   3.39305  -0.96084 
 H                    -2.90359   3.1215   -0.85643 
 H                    -1.38759   2.90889  -0.28784 
 O                     3.70421  -0.204    -1.50756 
 H                     3.34216   0.64367  -1.89543 
 H                     2.94966  -0.83146  -1.31532 
 O                    -1.63038   2.73893  -3.04394 
 H                    -2.47997   2.24623  -3.23237 
 H                    -1.63423   3.05976  -2.09681 
 O                    -4.24375   2.36588  -0.63482 
 H                    -4.72141   2.85499  -1.36465 
 H                    -4.51798   2.73916   0.25146 
 O                     0.71407   2.42821  -3.00475 
 H                     0.94507   2.95604  -3.82209 
 H                    -0.27884   2.32603  -2.9436 
 O                     1.85276   3.29177   1.01142 
 H                     1.42363   4.14319   0.70985 
 H                     2.62042   3.07377   0.4087 
 O                     1.60069  -4.93306   0.67391 
 H                     0.93586  -4.2295    0.42282 
 H                     1.11951  -5.77763   0.90875 
 O                    -3.54844  -1.802     1.62515 
 H                    -3.35346  -1.66105   0.6545 
 H                    -2.85848  -2.40946   2.01889 
 O                     1.784    -2.63852   3.21147 
 H                     2.15638  -1.85211   3.70433 
 H                     2.50172  -3.05017   2.64984 
 O                    -1.74125  -2.88668   2.39494 
 H                    -1.79007  -3.78081   2.84013 
 H                    -0.87903  -2.81036   1.89414 
 O                    -0.69848  -1.32748   5.07564 
 H                    -0.38058  -2.17763   5.49548 
 H                    -0.99367  -1.50906   4.1376 
 O                    -0.5857    5.44528  -0.98325 
 H                    -1.03035   6.06259  -0.33419 
 H                    -1.02155   4.54627  -0.94026 
 O                     2.37841   4.14041   3.22015 
 H                     2.28333   3.51032   2.44943 
 H                     2.05599   3.6958    4.05589 
 
 NAtoms=     50 NQM=       50 NQMF=       0 NMMI=      0 NMMIF=      0
                NMic=       0 NMicF=      0.
                    Isotopes and Nuclear Properties:
 (Nuclear quadrupole moments (NQMom) in fm**2, nuclear magnetic moments (NMagM)
  in nuclear magnetons)

  Atom         1           2           3           4           5           6           7           8           9          10
 IAtWgt=          12           1           1          12           1          12           1          16          16           1
 AtmWgt=  12.0000000   1.0078250   1.0078250  12.0000000   1.0078250  12.0000000   1.0078250  15.9949146  15.9949146   1.0078250
 NucSpn=           0           1           1           0           1           0           1           0           0           1
 AtZEff=   0.0000000   0.0000000   0.0000000   0.0000000   0.0000000   0.0000000   0.0000000   0.0000000   0.0000000   0.0000000
 NQMom=    0.0000000   0.0000000   0.0000000   0.0000000   0.0000000   0.0000000   0.0000000   0.0000000   0.0000000   0.0000000
 NMagM=    0.0000000   2.7928460   2.7928460   0.0000000   2.7928460   0.0000000   2.7928460   0.0000000   0.0000000   2.7928460
 AtZNuc=   6.0000000   1.0000000   1.0000000   6.0000000   1.0000000   6.0000000   1.0000000   8.0000000   8.0000000   1.0000000

  Atom        11          12          13          14          15          16          17          18          19          20
 IAtWgt=           1          16           1           1          16           1           1          16           1           1
 AtmWgt=   1.0078250  15.9949146   1.0078250   1.0078250  15.9949146   1.0078250   1.0078250  15.9949146   1.0078250   1.0078250
 NucSpn=           1           0           1           1           0           1           1           0           1           1
 AtZEff=   0.0000000   0.0000000   0.0000000   0.0000000   0.0000000   0.0000000   0.0000000   0.0000000   0.0000000   0.0000000
 NQMom=    0.0000000   0.0000000   0.0000000   0.0000000   0.0000000   0.0000000   0.0000000   0.0000000   0.0000000   0.0000000
 NMagM=    2.7928460   0.0000000   2.7928460   2.7928460   0.0000000   2.7928460   2.7928460   0.0000000   2.7928460   2.7928460
 AtZNuc=   1.0000000   8.0000000   1.0000000   1.0000000   8.0000000   1.0000000   1.0000000   8.0000000   1.0000000   1.0000000

  Atom        21          22          23          24          25          26          27          28          29          30
 IAtWgt=          16           1           1          16           1           1          16           1           1          16
 AtmWgt=  15.9949146   1.0078250   1.0078250  15.9949146   1.0078250   1.0078250  15.9949146   1.0078250   1.0078250  15.9949146
 NucSpn=           0           1           1           0           1           1           0           1           1           0
 AtZEff=   0.0000000   0.0000000   0.0000000   0.0000000   0.0000000   0.0000000   0.0000000   0.0000000   0.0000000   0.0000000
 NQMom=    0.0000000   0.0000000   0.0000000   0.0000000   0.0000000   0.0000000   0.0000000   0.0000000   0.0000000   0.0000000
 NMagM=    0.0000000   2.7928460   2.7928460   0.0000000   2.7928460   2.7928460   0.0000000   2.7928460   2.7928460   0.0000000
 AtZNuc=   8.0000000   1.0000000   1.0000000   8.0000000   1.0000000   1.0000000   8.0000000   1.0000000   1.0000000   8.0000000

  Atom        31          32          33          34          35          36          37          38          39          40
 IAtWgt=           1           1          16           1           1          16           1           1          16           1
 AtmWgt=   1.0078250   1.0078250  15.9949146   1.0078250   1.0078250  15.9949146   1.0078250   1.0078250  15.9949146   1.0078250
 NucSpn=           1           1           0           1           1           0           1           1           0           1
 AtZEff=   0.0000000   0.0000000   0.0000000   0.0000000   0.0000000   0.0000000   0.0000000   0.0000000   0.0000000   0.0000000
 NQMom=    0.0000000   0.0000000   0.0000000   0.0000000   0.0000000   0.0000000   0.0000000   0.0000000   0.0000000   0.0000000
 NMagM=    2.7928460   2.7928460   0.0000000   2.7928460   2.7928460   0.0000000   2.7928460   2.7928460   0.0000000   2.7928460
 AtZNuc=   1.0000000   1.0000000   8.0000000   1.0000000   1.0000000   8.0000000   1.0000000   1.0000000   8.0000000   1.0000000

  Atom        41          42          43          44          45          46          47          48          49          50
 IAtWgt=           1          16           1           1          16           1           1          16           1           1
 AtmWgt=   1.0078250  15.9949146   1.0078250   1.0078250  15.9949146   1.0078250   1.0078250  15.9949146   1.0078250   1.0078250
 NucSpn=           1           0           1           1           0           1           1           0           1           1
 AtZEff=   0.0000000   0.0000000   0.0000000   0.0000000   0.0000000   0.0000000   0.0000000   0.0000000   0.0000000   0.0000000
 NQMom=    0.0000000   0.0000000   0.0000000   0.0000000   0.0000000   0.0000000   0.0000000   0.0000000   0.0000000   0.0000000
 NMagM=    2.7928460   0.0000000   2.7928460   2.7928460   0.0000000   2.7928460   2.7928460   0.0000000   2.7928460   2.7928460
 AtZNuc=   1.0000000   8.0000000   1.0000000   1.0000000   8.0000000   1.0000000   1.0000000   8.0000000   1.0000000   1.0000000
 Background charge distribution read from input stream:
 Point Charges:
 XYZ=    2.8630    1.8123   -2.4571 Q=   -0.8200 A=    0.0000 R=    0.0000 C=    0.0000
 XYZ=    3.5094    2.1890   -3.1206 Q=    0.4100 A=    0.0000 R=    0.0000 C=    0.0000
 XYZ=    1.9327    2.0779   -2.7103 Q=    0.4100 A=    0.0000 R=    0.0000 C=    0.0000
 XYZ=   -3.7763    4.2769    3.1417 Q=   -0.8200 A=    0.0000 R=    0.0000 C=    0.0000
 XYZ=   -4.6856    4.5361    3.4674 Q=    0.4100 A=    0.0000 R=    0.0000 C=    0.0000
 XYZ=   -3.8654    3.6280    2.3861 Q=    0.4100 A=    0.0000 R=    0.0000 C=    0.0000
 XYZ=    1.8923    0.8045    5.4957 Q=   -0.8200 A=    0.0000 R=    0.0000 C=    0.0000
 XYZ=    2.3032    0.0471    4.9883 Q=    0.4100 A=    0.0000 R=    0.0000 C=    0.0000
 XYZ=    0.9660    0.5536    5.7770 Q=    0.4100 A=    0.0000 R=    0.0000 C=    0.0000
 XYZ=   -6.0730    0.7029   -1.3008 Q=   -0.8200 A=    0.0000 R=    0.0000 C=    0.0000
 XYZ=   -5.4106    1.3907   -1.0038 Q=    0.4100 A=    0.0000 R=    0.0000 C=    0.0000
 XYZ=   -5.9538    0.5253   -2.2777 Q=    0.4100 A=    0.0000 R=    0.0000 C=    0.0000
 XYZ=   -2.9615    3.7161    5.2951 Q=   -0.8200 A=    0.0000 R=    0.0000 C=    0.0000
 XYZ=   -3.2259    4.0380    4.3860 Q=    0.4100 A=    0.0000 R=    0.0000 C=    0.0000
 XYZ=   -2.2009    3.0720    5.2125 Q=    0.4100 A=    0.0000 R=    0.0000 C=    0.0000
 XYZ=    3.1321   -0.9455    4.3705 Q=   -0.8200 A=    0.0000 R=    0.0000 C=    0.0000
 XYZ=    3.7044   -1.6056    4.8572 Q=    0.4100 A=    0.0000 R=    0.0000 C=    0.0000
 XYZ=    3.7146   -0.2863    3.8949 Q=    0.4100 A=    0.0000 R=    0.0000 C=    0.0000
 XYZ=   -0.8284    2.7199    5.7125 Q=   -0.8200 A=    0.0000 R=    0.0000 C=    0.0000
 XYZ=    0.0792    3.1255    5.6039 Q=    0.4100 A=    0.0000 R=    0.0000 C=    0.0000
 XYZ=   -0.7350    1.7575    5.9677 Q=    0.4100 A=    0.0000 R=    0.0000 C=    0.0000
 XYZ=   -3.8955    1.8164   -3.5140 Q=   -0.8200 A=    0.0000 R=    0.0000 C=    0.0000
 XYZ=   -4.4365    2.5609   -3.1227 Q=    0.4100 A=    0.0000 R=    0.0000 C=    0.0000
 XYZ=   -4.4604    0.9941   -3.5822 Q=    0.4100 A=    0.0000 R=    0.0000 C=    0.0000
 XYZ=    3.5108    3.0309   -0.4500 Q=   -0.8200 A=    0.0000 R=    0.0000 C=    0.0000
 XYZ=    3.1962    2.3142   -1.0724 Q=    0.4100 A=    0.0000 R=    0.0000 C=    0.0000
 XYZ=    3.5950    3.8930   -0.9497 Q=    0.4100 A=    0.0000 R=    0.0000 C=    0.0000
 XYZ=    3.2385   -3.9000    1.9452 Q=   -0.8200 A=    0.0000 R=    0.0000 C=    0.0000
 XYZ=    4.0900   -3.7368    1.4468 Q=    0.4100 A=    0.0000 R=    0.0000 C=    0.0000
 XYZ=    2.5776   -4.3432    1.3396 Q=    0.4100 A=    0.0000 R=    0.0000 C=    0.0000
 XYZ=    1.6621    3.2297    5.3052 Q=   -0.8200 A=    0.0000 R=    0.0000 C=    0.0000
 XYZ=    2.0055    3.6038    6.1666 Q=    0.4100 A=    0.0000 R=    0.0000 C=    0.0000
 XYZ=    1.7878    2.2376    5.2991 Q=    0.4100 A=    0.0000 R=    0.0000 C=    0.0000
 XYZ=    5.9458    0.4729   -1.7696 Q=   -0.8200 A=    0.0000 R=    0.0000 C=    0.0000
 XYZ=    6.0571    0.4313   -2.7626 Q=    0.4100 A=    0.0000 R=    0.0000 C=    0.0000
 XYZ=    5.0351    0.1421   -1.5222 Q=    0.4100 A=    0.0000 R=    0.0000 C=    0.0000
 XYZ=   -5.0703    3.1359    1.4386 Q=   -0.8200 A=    0.0000 R=    0.0000 C=    0.0000
 XYZ=   -5.8277    3.5890    0.9685 Q=    0.4100 A=    0.0000 R=    0.0000 C=    0.0000
 XYZ=   -5.4317    2.5420    2.1574 Q=    0.4100 A=    0.0000 R=    0.0000 C=    0.0000
 XYZ=    4.7581    0.5029    3.3943 Q=   -0.8200 A=    0.0000 R=    0.0000 C=    0.0000
 XYZ=    5.3764    0.5711    4.1773 Q=    0.4100 A=    0.0000 R=    0.0000 C=    0.0000
 XYZ=    4.6966    1.3916    2.9399 Q=    0.4100 A=    0.0000 R=    0.0000 C=    0.0000
 XYZ=   -0.9381    5.3901    4.2060 Q=   -0.8200 A=    0.0000 R=    0.0000 C=    0.0000
 XYZ=   -1.5348    5.6766    3.4564 Q=    0.4100 A=    0.0000 R=    0.0000 C=    0.0000
 XYZ=   -1.4896    5.2096    5.0205 Q=    0.4100 A=    0.0000 R=    0.0000 C=    0.0000
 XYZ=   -2.5076    6.1772    2.4979 Q=   -0.8200 A=    0.0000 R=    0.0000 C=    0.0000
 XYZ=   -2.9980    5.3319    2.7102 Q=    0.4100 A=    0.0000 R=    0.0000 C=    0.0000
 XYZ=   -3.1360    6.9524    2.5627 Q=    0.4100 A=    0.0000 R=    0.0000 C=    0.0000
 XYZ=   -0.9183    4.6843   -4.3084 Q=   -0.8200 A=    0.0000 R=    0.0000 C=    0.0000
 XYZ=   -1.2989    3.9568   -3.7374 Q=    0.4100 A=    0.0000 R=    0.0000 C=    0.0000
 XYZ=   -0.6950    5.4741   -3.7371 Q=    0.4100 A=    0.0000 R=    0.0000 C=    0.0000
 XYZ=    0.8760    5.9605    2.9826 Q=   -0.8200 A=    0.0000 R=    0.0000 C=    0.0000
 XYZ=    1.6185    5.2907    2.9679 Q=    0.4100 A=    0.0000 R=    0.0000 C=    0.0000
 XYZ=    0.1604    5.6510    3.6088 Q=    0.4100 A=    0.0000 R=    0.0000 C=    0.0000
 XYZ=   -0.4750    0.5808    6.4676 Q=   -0.8200 A=    0.0000 R=    0.0000 C=    0.0000
 XYZ=   -0.7405   -0.2682    6.0107 Q=    0.4100 A=    0.0000 R=    0.0000 C=    0.0000
 XYZ=   -0.5391    0.4602    7.4583 Q=    0.4100 A=    0.0000 R=    0.0000 C=    0.0000
 XYZ=    0.8953   -4.5213    4.0927 Q=   -0.8200 A=    0.0000 R=    0.0000 C=    0.0000
 XYZ=    1.2959   -3.7074    3.6719 Q=    0.4100 A=    0.0000 R=    0.0000 C=    0.0000
 XYZ=    0.0587   -4.7712    3.6051 Q=    0.4100 A=    0.0000 R=    0.0000 C=    0.0000
 XYZ=   -5.7365   -0.7432    2.2758 Q=   -0.8200 A=    0.0000 R=    0.0000 C=    0.0000
 XYZ=   -4.8164   -1.1215    2.1744 Q=    0.4100 A=    0.0000 R=    0.0000 C=    0.0000
 XYZ=   -6.3134   -1.3969    2.7657 Q=    0.4100 A=    0.0000 R=    0.0000 C=    0.0000
 XYZ=    5.6386   -1.3539    2.3457 Q=   -0.8200 A=    0.0000 R=    0.0000 C=    0.0000
 XYZ=    5.8830   -1.9795    3.0866 Q=    0.4100 A=    0.0000 R=    0.0000 C=    0.0000
 XYZ=    5.1183   -0.5848    2.7168 Q=    0.4100 A=    0.0000 R=    0.0000 C=    0.0000
 XYZ=   -5.2827    3.4483   -2.4534 Q=   -0.8200 A=    0.0000 R=    0.0000 C=    0.0000
 XYZ=   -5.1240    4.4011   -2.1943 Q=    0.4100 A=    0.0000 R=    0.0000 C=    0.0000
 XYZ=   -5.9117    3.4146   -3.2301 Q=    0.4100 A=    0.0000 R=    0.0000 C=    0.0000
 XYZ=    4.7454    3.0838    3.0577 Q=   -0.8200 A=    0.0000 R=    0.0000 C=    0.0000
 XYZ=    5.4023    3.1968    3.8032 Q=    0.4100 A=    0.0000 R=    0.0000 C=    0.0000
 XYZ=    3.9262    3.6240    3.2505 Q=    0.4100 A=    0.0000 R=    0.0000 C=    0.0000
 XYZ=    5.4058    2.9816    0.8911 Q=   -0.8200 A=    0.0000 R=    0.0000 C=    0.0000
 XYZ=    5.1707    3.1084    1.8548 Q=    0.4100 A=    0.0000 R=    0.0000 C=    0.0000
 XYZ=    4.5693    2.9643    0.3435 Q=    0.4100 A=    0.0000 R=    0.0000 C=    0.0000
 XYZ=    1.6060    5.6201   -0.0854 Q=   -0.8200 A=    0.0000 R=    0.0000 C=    0.0000
 XYZ=    1.4492    6.3967    0.5248 Q=    0.4100 A=    0.0000 R=    0.0000 C=    0.0000
 XYZ=    0.8056    5.4890   -0.6704 Q=    0.4100 A=    0.0000 R=    0.0000 C=    0.0000
 XYZ=   -4.3900   -3.4127   -0.0747 Q=   -0.8200 A=    0.0000 R=    0.0000 C=    0.0000
 XYZ=   -4.3399   -2.8878    0.7750 Q=    0.4100 A=    0.0000 R=    0.0000 C=    0.0000
 XYZ=   -4.1603   -4.3684    0.1098 Q=    0.4100 A=    0.0000 R=    0.0000 C=    0.0000
 XYZ=   -5.9263    1.6044    3.1556 Q=   -0.8200 A=    0.0000 R=    0.0000 C=    0.0000
 XYZ=   -6.0884    1.3558    4.1105 Q=    0.4100 A=    0.0000 R=    0.0000 C=    0.0000
 XYZ=   -5.7557    0.7772    2.6202 Q=    0.4100 A=    0.0000 R=    0.0000 C=    0.0000
 XYZ=    3.4346   -6.3699   -0.3968 Q=   -0.8200 A=    0.0000 R=    0.0000 C=    0.0000
 XYZ=    2.5852   -5.8858   -0.1866 Q=    0.4100 A=    0.0000 R=    0.0000 C=    0.0000
 XYZ=    3.7875   -6.7999    0.4342 Q=    0.4100 A=    0.0000 R=    0.0000 C=    0.0000
 XYZ=    5.5159   -3.4848    1.0327 Q=   -0.8200 A=    0.0000 R=    0.0000 C=    0.0000
 XYZ=    5.5149   -2.5397    1.3596 Q=    0.4100 A=    0.0000 R=    0.0000 C=    0.0000
 XYZ=    5.9081   -3.5190    0.1134 Q=    0.4100 A=    0.0000 R=    0.0000 C=    0.0000
 XYZ=   -1.6656    3.6302    7.6424 Q=   -0.8200 A=    0.0000 R=    0.0000 C=    0.0000
 XYZ=   -2.0179    4.5360    7.4067 Q=    0.4100 A=    0.0000 R=    0.0000 C=    0.0000
 XYZ=   -1.3012    3.1903    6.8215 Q=    0.4100 A=    0.0000 R=    0.0000 C=    0.0000
 XYZ=   -7.0329   -0.8196    0.3206 Q=   -0.8200 A=    0.0000 R=    0.0000 C=    0.0000
 XYZ=   -6.6116   -0.3661   -0.4648 Q=    0.4100 A=    0.0000 R=    0.0000 C=    0.0000
 XYZ=   -6.5352   -0.5755    1.1529 Q=    0.4100 A=    0.0000 R=    0.0000 C=    0.0000
 XYZ=   -5.6850    0.3326   -3.6004 Q=   -0.8200 A=    0.0000 R=    0.0000 C=    0.0000
 XYZ=   -6.1161   -0.5696   -3.5857 Q=    0.4100 A=    0.0000 R=    0.0000 C=    0.0000
 XYZ=   -6.1568    0.9167   -4.2609 Q=    0.4100 A=    0.0000 R=    0.0000 C=    0.0000
 XYZ=   -3.6468    2.7186   -5.9753 Q=   -0.8200 A=    0.0000 R=    0.0000 C=    0.0000
 XYZ=   -3.7267    2.4269   -5.0221 Q=    0.4100 A=    0.0000 R=    0.0000 C=    0.0000
 XYZ=   -4.1866    2.1097   -6.5566 Q=    0.4100 A=    0.0000 R=    0.0000 C=    0.0000
 XYZ=   -1.5269    7.0347    0.5804 Q=   -0.8200 A=    0.0000 R=    0.0000 C=    0.0000
 XYZ=   -1.9974    6.7954    1.4298 Q=    0.4100 A=    0.0000 R=    0.0000 C=    0.0000
 XYZ=   -2.0579    7.7246    0.0883 Q=    0.4100 A=    0.0000 R=    0.0000 C=    0.0000
 XYZ=    0.7150    7.4053    1.2281 Q=   -0.8200 A=    0.0000 R=    0.0000 C=    0.0000
 XYZ=   -0.2301    7.3779    0.9025 Q=    0.4100 A=    0.0000 R=    0.0000 C=    0.0000
 XYZ=    0.8200    6.7780    1.9998 Q=    0.4100 A=    0.0000 R=    0.0000 C=    0.0000
 XYZ=    3.2043    1.5761    7.3918 Q=   -0.8200 A=    0.0000 R=    0.0000 C=    0.0000
 XYZ=    4.1778    1.6272    7.1690 Q=    0.4100 A=    0.0000 R=    0.0000 C=    0.0000
 XYZ=    2.6944    1.2664    6.5892 Q=    0.4100 A=    0.0000 R=    0.0000 C=    0.0000
 XYZ=   -5.0436    2.9615    6.4204 Q=   -0.8200 A=    0.0000 R=    0.0000 C=    0.0000
 XYZ=   -5.6957    3.7174    6.4781 Q=    0.4100 A=    0.0000 R=    0.0000 C=    0.0000
 XYZ=   -4.2497    3.2465    5.8831 Q=    0.4100 A=    0.0000 R=    0.0000 C=    0.0000
 XYZ=   -0.8360    6.8071   -2.9729 Q=   -0.8200 A=    0.0000 R=    0.0000 C=    0.0000
 XYZ=    0.0328    7.1895   -3.2877 Q=    0.4100 A=    0.0000 R=    0.0000 C=    0.0000
 XYZ=   -0.6929    6.3192   -2.1118 Q=    0.4100 A=    0.0000 R=    0.0000 C=    0.0000
 XYZ=   -7.8905    2.4078   -0.6493 Q=   -0.8200 A=    0.0000 R=    0.0000 C=    0.0000
 XYZ=   -7.2131    1.7614   -1.0006 Q=    0.4100 A=    0.0000 R=    0.0000 C=    0.0000
 XYZ=   -8.4067    1.9794    0.0924 Q=    0.4100 A=    0.0000 R=    0.0000 C=    0.0000
 XYZ=    1.2769    4.0678   -4.9315 Q=   -0.8200 A=    0.0000 R=    0.0000 C=    0.0000
 XYZ=    0.3302    4.2965   -4.7042 Q=    0.4100 A=    0.0000 R=    0.0000 C=    0.0000
 XYZ=    1.3634    3.9518   -5.9210 Q=    0.4100 A=    0.0000 R=    0.0000 C=    0.0000
 XYZ=   -0.5927   -3.7954    5.8177 Q=   -0.8200 A=    0.0000 R=    0.0000 C=    0.0000
 XYZ=   -0.0044   -4.1472    5.0895 Q=    0.4100 A=    0.0000 R=    0.0000 C=    0.0000
 XYZ=   -0.2990   -4.1739    6.6955 Q=    0.4100 A=    0.0000 R=    0.0000 C=    0.0000
 XYZ=   -2.8428    5.6244    6.7624 Q=   -0.8200 A=    0.0000 R=    0.0000 C=    0.0000
 XYZ=   -2.9735    4.8406    6.1553 Q=    0.4100 A=    0.0000 R=    0.0000 C=    0.0000
 XYZ=   -3.6521    5.7384    7.3385 Q=    0.4100 A=    0.0000 R=    0.0000 C=    0.0000
 XYZ=   -6.0852   -3.7193   -1.7754 Q=   -0.8200 A=    0.0000 R=    0.0000 C=    0.0000
 XYZ=   -5.4288   -3.6079   -1.0293 Q=    0.4100 A=    0.0000 R=    0.0000 C=    0.0000
 XYZ=   -6.0936   -4.6743   -2.0720 Q=    0.4100 A=    0.0000 R=    0.0000 C=    0.0000
 XYZ=   -4.9544    5.6466   -2.0367 Q=   -0.8200 A=    0.0000 R=    0.0000 C=    0.0000
 XYZ=   -4.2218    5.9015   -2.6678 Q=    0.4100 A=    0.0000 R=    0.0000 C=    0.0000
 XYZ=   -5.3926    6.4732   -1.6834 Q=    0.4100 A=    0.0000 R=    0.0000 C=    0.0000
 XYZ=    4.2526   -4.9919    4.0042 Q=   -0.8200 A=    0.0000 R=    0.0000 C=    0.0000
 XYZ=    3.7774   -4.6224    3.2056 Q=    0.4100 A=    0.0000 R=    0.0000 C=    0.0000
 XYZ=    4.3253   -4.2833    4.7061 Q=    0.4100 A=    0.0000 R=    0.0000 C=    0.0000
 XYZ=   -1.2856    0.5231   -7.8281 Q=   -0.8200 A=    0.0000 R=    0.0000 C=    0.0000
 XYZ=   -1.0990    1.3920   -7.3695 Q=    0.4100 A=    0.0000 R=    0.0000 C=    0.0000
 XYZ=   -1.0074    0.5857   -8.7866 Q=    0.4100 A=    0.0000 R=    0.0000 C=    0.0000
 XYZ=    7.6766   -1.3634   -1.4178 Q=   -0.8200 A=    0.0000 R=    0.0000 C=    0.0000
 XYZ=    6.7990   -0.9215   -1.6039 Q=    0.4100 A=    0.0000 R=    0.0000 C=    0.0000
 XYZ=    7.5243   -2.3261   -1.1941 Q=    0.4100 A=    0.0000 R=    0.0000 C=    0.0000
 XYZ=    3.4752    5.3484   -1.3951 Q=   -0.8200 A=    0.0000 R=    0.0000 C=    0.0000
 XYZ=    2.7332    5.7157   -0.8343 Q=    0.4100 A=    0.0000 R=    0.0000 C=    0.0000
 XYZ=    3.1823    5.3079   -2.3504 Q=    0.4100 A=    0.0000 R=    0.0000 C=    0.0000
 XYZ=   -5.9622    0.7477    5.7370 Q=   -0.8200 A=    0.0000 R=    0.0000 C=    0.0000
 XYZ=   -6.0514    0.2932    6.6233 Q=    0.4100 A=    0.0000 R=    0.0000 C=    0.0000
 XYZ=   -5.3894    1.5614    5.8359 Q=    0.4100 A=    0.0000 R=    0.0000 C=    0.0000
 XYZ=   -1.5108   -4.9875    3.5011 Q=   -0.8200 A=    0.0000 R=    0.0000 C=    0.0000
 XYZ=   -2.0750   -4.8859    4.3205 Q=    0.4100 A=    0.0000 R=    0.0000 C=    0.0000
 XYZ=   -1.4782   -5.9513    3.2364 Q=    0.4100 A=    0.0000 R=    0.0000 C=    0.0000
 XYZ=    7.1246    1.4010    0.1295 Q=   -0.8200 A=    0.0000 R=    0.0000 C=    0.0000
 XYZ=    6.4963    1.9901    0.6376 Q=    0.4100 A=    0.0000 R=    0.0000 C=    0.0000
 XYZ=    6.6626    1.0420   -0.6815 Q=    0.4100 A=    0.0000 R=    0.0000 C=    0.0000
 XYZ=   -2.2549    4.4288   -6.3426 Q=   -0.8200 A=    0.0000 R=    0.0000 C=    0.0000
 XYZ=   -1.7337    4.3703   -5.4911 Q=    0.4100 A=    0.0000 R=    0.0000 C=    0.0000
 XYZ=   -3.0384    3.8091   -6.2970 Q=    0.4100 A=    0.0000 R=    0.0000 C=    0.0000
 XYZ=   -3.4657   -0.4957   -7.6555 Q=   -0.8200 A=    0.0000 R=    0.0000 C=    0.0000
 XYZ=   -3.4757   -1.4909   -7.5577 Q=    0.4100 A=    0.0000 R=    0.0000 C=    0.0000
 XYZ=   -2.5288   -0.1605   -7.5557 Q=    0.4100 A=    0.0000 R=    0.0000 C=    0.0000
 XYZ=   -6.5678   -2.0769   -3.3861 Q=   -0.8200 A=    0.0000 R=    0.0000 C=    0.0000
 XYZ=   -6.1035   -2.3441   -4.2305 Q=    0.4100 A=    0.0000 R=    0.0000 C=    0.0000
 XYZ=   -6.3228   -2.7138   -2.6551 Q=    0.4100 A=    0.0000 R=    0.0000 C=    0.0000
 XYZ=    0.6416   -6.9590    1.3839 Q=   -0.8200 A=    0.0000 R=    0.0000 C=    0.0000
 XYZ=    0.2286   -7.4763    0.6342 Q=    0.4100 A=    0.0000 R=    0.0000 C=    0.0000
 XYZ=    1.2751   -7.5479    1.8858 Q=    0.4100 A=    0.0000 R=    0.0000 C=    0.0000
 XYZ=   -7.3741    3.5359    3.2521 Q=   -0.8200 A=    0.0000 R=    0.0000 C=    0.0000
 XYZ=   -6.7461    2.7608    3.3211 Q=    0.4100 A=    0.0000 R=    0.0000 C=    0.0000
 XYZ=   -6.8984    4.3748    3.5170 Q=    0.4100 A=    0.0000 R=    0.0000 C=    0.0000
 XYZ=    2.7396    5.0927   -3.5741 Q=   -0.8200 A=    0.0000 R=    0.0000 C=    0.0000
 XYZ=    3.6334    4.6449   -3.5518 Q=    0.4100 A=    0.0000 R=    0.0000 C=    0.0000
 XYZ=    2.1507    4.6284   -4.2357 Q=    0.4100 A=    0.0000 R=    0.0000 C=    0.0000
 XYZ=    0.8185    8.2505    4.3432 Q=   -0.8200 A=    0.0000 R=    0.0000 C=    0.0000
 XYZ=    1.0258    7.3017    4.1047 Q=    0.4100 A=    0.0000 R=    0.0000 C=    0.0000
 XYZ=    0.8668    8.8188    3.5217 Q=    0.4100 A=    0.0000 R=    0.0000 C=    0.0000
 XYZ=    2.9667   -7.4843   -2.5037 Q=   -0.8200 A=    0.0000 R=    0.0000 C=    0.0000
 XYZ=    3.0784   -6.9180   -1.6872 Q=    0.4100 A=    0.0000 R=    0.0000 C=    0.0000
 XYZ=    3.8380   -7.5416   -2.9912 Q=    0.4100 A=    0.0000 R=    0.0000 C=    0.0000
 XYZ=    7.7720   -0.0056    1.9015 Q=   -0.8200 A=    0.0000 R=    0.0000 C=    0.0000
 XYZ=    7.5493    0.5147    1.0770 Q=    0.4100 A=    0.0000 R=    0.0000 C=    0.0000
 XYZ=    6.9611   -0.5019    2.2115 Q=    0.4100 A=    0.0000 R=    0.0000 C=    0.0000
 XYZ=    6.4124   -4.7268    2.6765 Q=   -0.8200 A=    0.0000 R=    0.0000 C=    0.0000
 XYZ=    6.0075   -4.1623    1.9572 Q=    0.4100 A=    0.0000 R=    0.0000 C=    0.0000
 XYZ=    5.6909   -5.0643    3.2812 Q=    0.4100 A=    0.0000 R=    0.0000 C=    0.0000
 XYZ=    6.8468   -3.5857   -0.8309 Q=   -0.8200 A=    0.0000 R=    0.0000 C=    0.0000
 XYZ=    6.6415   -3.8955   -1.7593 Q=    0.4100 A=    0.0000 R=    0.0000 C=    0.0000
 XYZ=    7.2367   -4.3421   -0.3058 Q=    0.4100 A=    0.0000 R=    0.0000 C=    0.0000
 XYZ=   -4.8917   -3.9011    4.4338 Q=   -0.8200 A=    0.0000 R=    0.0000 C=    0.0000
 XYZ=   -4.7533   -2.9662    4.1070 Q=    0.4100 A=    0.0000 R=    0.0000 C=    0.0000
 XYZ=   -4.0340   -4.2537    4.8082 Q=    0.4100 A=    0.0000 R=    0.0000 C=    0.0000
 XYZ=    4.4988   -3.1652    5.4890 Q=   -0.8200 A=    0.0000 R=    0.0000 C=    0.0000
 XYZ=    4.8414   -3.2497    6.4247 Q=    0.4100 A=    0.0000 R=    0.0000 C=    0.0000
 XYZ=    5.2296   -2.8276    4.8958 Q=    0.4100 A=    0.0000 R=    0.0000 C=    0.0000
 XYZ=   -7.1506    4.4132    0.5126 Q=   -0.8200 A=    0.0000 R=    0.0000 C=    0.0000
 XYZ=   -7.5377    4.2148    1.4131 Q=    0.4100 A=    0.0000 R=    0.0000 C=    0.0000
 XYZ=   -7.5494    3.7953   -0.1651 Q=    0.4100 A=    0.0000 R=    0.0000 C=    0.0000
 XYZ=   -0.7634    2.8484   -7.3868 Q=   -0.8200 A=    0.0000 R=    0.0000 C=    0.0000
 XYZ=    0.1661    3.1330   -7.1522 Q=    0.4100 A=    0.0000 R=    0.0000 C=    0.0000
 XYZ=   -1.4176    3.5067   -7.0142 Q=    0.4100 A=    0.0000 R=    0.0000 C=    0.0000
 XYZ=    5.5022   -6.5300   -1.7692 Q=   -0.8200 A=    0.0000 R=    0.0000 C=    0.0000
 XYZ=    4.7639   -6.3219   -1.1276 Q=    0.4100 A=    0.0000 R=    0.0000 C=    0.0000
 XYZ=    5.1332   -7.0355   -2.5493 Q=    0.4100 A=    0.0000 R=    0.0000 C=    0.0000
 XYZ=   -2.7942   -4.4083    5.4870 Q=   -0.8200 A=    0.0000 R=    0.0000 C=    0.0000
 XYZ=   -1.9639   -3.9836    5.8481 Q=    0.4100 A=    0.0000 R=    0.0000 C=    0.0000
 XYZ=   -2.9701   -5.2637    5.9742 Q=    0.4100 A=    0.0000 R=    0.0000 C=    0.0000
 XYZ=   -5.9241    5.1705    3.9834 Q=   -0.8200 A=    0.0000 R=    0.0000 C=    0.0000
 XYZ=   -5.9275    6.1052    3.6280 Q=    0.4100 A=    0.0000 R=    0.0000 C=    0.0000
 XYZ=   -6.1050    5.1872    4.9668 Q=    0.4100 A=    0.0000 R=    0.0000 C=    0.0000
 XYZ=   -1.3957   -7.0287    2.5516 Q=   -0.8200 A=    0.0000 R=    0.0000 C=    0.0000
 XYZ=   -0.5695   -6.9791    1.9904 Q=    0.4100 A=    0.0000 R=    0.0000 C=    0.0000
 XYZ=   -1.2109   -7.5741    3.3692 Q=    0.4100 A=    0.0000 R=    0.0000 C=    0.0000
 XYZ=    1.9397    3.6330    7.8742 Q=   -0.8200 A=    0.0000 R=    0.0000 C=    0.0000
 XYZ=    1.1390    3.4994    8.4582 Q=    0.4100 A=    0.0000 R=    0.0000 C=    0.0000
 XYZ=    2.3776    2.7506    7.7020 Q=    0.4100 A=    0.0000 R=    0.0000 C=    0.0000
 XYZ=    6.2131    0.5616    5.3065 Q=   -0.8200 A=    0.0000 R=    0.0000 C=    0.0000
 XYZ=    6.9612    1.0563    4.8641 Q=    0.4100 A=    0.0000 R=    0.0000 C=    0.0000
 XYZ=    5.9273    1.0548    6.1282 Q=    0.4100 A=    0.0000 R=    0.0000 C=    0.0000
 XYZ=   -3.1941    7.1732   -3.5580 Q=   -0.8200 A=    0.0000 R=    0.0000 C=    0.0000
 XYZ=   -3.5497    7.9309   -3.0108 Q=    0.4100 A=    0.0000 R=    0.0000 C=    0.0000
 XYZ=   -2.2209    7.0498   -3.3636 Q=    0.4100 A=    0.0000 R=    0.0000 C=    0.0000
 XYZ=    6.4827    0.4364   -4.1118 Q=   -0.8200 A=    0.0000 R=    0.0000 C=    0.0000
 XYZ=    6.5138    1.3368   -4.5459 Q=    0.4100 A=    0.0000 R=    0.0000 C=    0.0000
 XYZ=    6.3239   -0.2639   -4.8079 Q=    0.4100 A=    0.0000 R=    0.0000 C=    0.0000
 XYZ=   -3.5845    2.7035    8.6112 Q=   -0.8200 A=    0.0000 R=    0.0000 C=    0.0000
 XYZ=   -2.7779    3.1624    8.2388 Q=    0.4100 A=    0.0000 R=    0.0000 C=    0.0000
 XYZ=   -4.2522    2.5583    7.8810 Q=    0.4100 A=    0.0000 R=    0.0000 C=    0.0000
 XYZ=   -7.8518   -3.1229   -0.0727 Q=   -0.8200 A=    0.0000 R=    0.0000 C=    0.0000
 XYZ=   -7.2748   -3.5180   -0.7876 Q=    0.4100 A=    0.0000 R=    0.0000 C=    0.0000
 XYZ=   -7.5755   -2.1763    0.0933 Q=    0.4100 A=    0.0000 R=    0.0000 C=    0.0000
 XYZ=    4.7446    3.7260   -3.6065 Q=   -0.8200 A=    0.0000 R=    0.0000 C=    0.0000
 XYZ=    5.1608    4.4247   -3.0246 Q=    0.4100 A=    0.0000 R=    0.0000 C=    0.0000
 XYZ=    5.4619    3.1594   -4.0119 Q=    0.4100 A=    0.0000 R=    0.0000 C=    0.0000
 XYZ=    6.2670   -2.5236    4.2421 Q=   -0.8200 A=    0.0000 R=    0.0000 C=    0.0000
 XYZ=    6.8663   -1.9788    4.8287 Q=    0.4100 A=    0.0000 R=    0.0000 C=    0.0000
 XYZ=    6.6751   -3.4243    4.0935 Q=    0.4100 A=    0.0000 R=    0.0000 C=    0.0000
 XYZ=    0.1231    3.0577    9.1787 Q=   -0.8200 A=    0.0000 R=    0.0000 C=    0.0000
 XYZ=    0.0402    3.5601   10.0393 Q=    0.4100 A=    0.0000 R=    0.0000 C=    0.0000
 XYZ=   -0.6542    3.2766    8.5888 Q=    0.4100 A=    0.0000 R=    0.0000 C=    0.0000
 XYZ=   -6.7287    3.5082   -4.3274 Q=   -0.8200 A=    0.0000 R=    0.0000 C=    0.0000
 XYZ=   -6.9634    4.3185   -4.8645 Q=    0.4100 A=    0.0000 R=    0.0000 C=    0.0000
 XYZ=   -6.5333    2.7451   -4.9435 Q=    0.4100 A=    0.0000 R=    0.0000 C=    0.0000
 XYZ=    2.4206   -6.3626    4.9029 Q=   -0.8200 A=    0.0000 R=    0.0000 C=    0.0000
 XYZ=    3.2942   -5.9411    4.6596 Q=    0.4100 A=    0.0000 R=    0.0000 C=    0.0000
 XYZ=    1.6712   -5.7660    4.6157 Q=    0.4100 A=    0.0000 R=    0.0000 C=    0.0000
 XYZ=   -5.0961    1.4418   -7.3344 Q=   -0.8200 A=    0.0000 R=    0.0000 C=    0.0000
 XYZ=   -5.2645    1.7488   -8.2711 Q=    0.4100 A=    0.0000 R=    0.0000 C=    0.0000
 XYZ=   -4.5966    0.5756   -7.3524 Q=    0.4100 A=    0.0000 R=    0.0000 C=    0.0000
 XYZ=    7.5184    4.3707    0.7069 Q=   -0.8200 A=    0.0000 R=    0.0000 C=    0.0000
 XYZ=    6.6396    3.8985    0.7763 Q=    0.4100 A=    0.0000 R=    0.0000 C=    0.0000
 XYZ=    8.2253    3.7201    0.4292 Q=    0.4100 A=    0.0000 R=    0.0000 C=    0.0000
 XYZ=   -4.4701   -5.8152    0.6853 Q=   -0.8200 A=    0.0000 R=    0.0000 C=    0.0000
 XYZ=   -5.0121   -5.4995    1.4642 Q=    0.4100 A=    0.0000 R=    0.0000 C=    0.0000
 XYZ=   -3.9253   -6.6083    0.9578 Q=    0.4100 A=    0.0000 R=    0.0000 C=    0.0000
 XYZ=    0.7669    5.8858    8.0149 Q=   -0.8200 A=    0.0000 R=    0.0000 C=    0.0000
 XYZ=    0.9515    6.1800    8.9527 Q=    0.4100 A=    0.0000 R=    0.0000 C=    0.0000
 XYZ=    1.1592    4.9779    7.8670 Q=    0.4100 A=    0.0000 R=    0.0000 C=    0.0000
 XYZ=    0.1000    0.6352    8.9114 Q=   -0.8200 A=    0.0000 R=    0.0000 C=    0.0000
 XYZ=    1.0568    0.3616    9.0097 Q=    0.4100 A=    0.0000 R=    0.0000 C=    0.0000
 XYZ=    0.0214    1.6241    9.0382 Q=    0.4100 A=    0.0000 R=    0.0000 C=    0.0000
 XYZ=    1.6667    3.4835   -7.3177 Q=   -0.8200 A=    0.0000 R=    0.0000 C=    0.0000
 XYZ=    1.4662    3.6890   -8.2756 Q=    0.4100 A=    0.0000 R=    0.0000 C=    0.0000
 XYZ=    2.6461    3.3113   -7.2117 Q=    0.4100 A=    0.0000 R=    0.0000 C=    0.0000
 XYZ=   -6.9640    6.7862    0.8257 Q=   -0.8200 A=    0.0000 R=    0.0000 C=    0.0000
 XYZ=   -6.9528    5.7864    0.8048 Q=    0.4100 A=    0.0000 R=    0.0000 C=    0.0000
 XYZ=   -6.5961    7.1054    1.6990 Q=    0.4100 A=    0.0000 R=    0.0000 C=    0.0000
 XYZ=   -1.1524    7.1361    7.4128 Q=   -0.8200 A=    0.0000 R=    0.0000 C=    0.0000
 XYZ=   -1.8865    6.5637    7.0474 Q=    0.4100 A=    0.0000 R=    0.0000 C=    0.0000
 XYZ=   -0.3603    6.5650    7.6284 Q=    0.4100 A=    0.0000 R=    0.0000 C=    0.0000
 XYZ=    6.8704   -4.9629   -2.8582 Q=   -0.8200 A=    0.0000 R=    0.0000 C=    0.0000
 XYZ=    6.1993   -5.5620   -2.4215 Q=    0.4100 A=    0.0000 R=    0.0000 C=    0.0000
 XYZ=    7.7265   -5.4624   -2.9912 Q=    0.4100 A=    0.0000 R=    0.0000 C=    0.0000
 XYZ=   -3.7588    8.1631    2.8667 Q=   -0.8200 A=    0.0000 R=    0.0000 C=    0.0000
 XYZ=   -3.1256    8.7343    3.3891 Q=    0.4100 A=    0.0000 R=    0.0000 C=    0.0000
 XYZ=   -4.1452    8.6964    2.1140 Q=    0.4100 A=    0.0000 R=    0.0000 C=    0.0000
 XYZ=   -8.8222   -1.2730   -2.8023 Q=   -0.8200 A=    0.0000 R=    0.0000 C=    0.0000
 XYZ=   -8.9325   -0.4235   -3.3184 Q=    0.4100 A=    0.0000 R=    0.0000 C=    0.0000
 XYZ=   -7.8816   -1.5997   -2.8952 Q=    0.4100 A=    0.0000 R=    0.0000 C=    0.0000
 XYZ=    1.6528    9.3629    0.3763 Q=   -0.8200 A=    0.0000 R=    0.0000 C=    0.0000
 XYZ=    1.2259    8.5166    0.6951 Q=    0.4100 A=    0.0000 R=    0.0000 C=    0.0000
 XYZ=    1.7637    9.3266   -0.6169 Q=    0.4100 A=    0.0000 R=    0.0000 C=    0.0000
 XYZ=    6.5523    3.5726    4.4834 Q=   -0.8200 A=    0.0000 R=    0.0000 C=    0.0000
 XYZ=    7.1848    4.3433    4.4053 Q=    0.4100 A=    0.0000 R=    0.0000 C=    0.0000
 XYZ=    7.0703    2.7176    4.5078 Q=    0.4100 A=    0.0000 R=    0.0000 C=    0.0000
 XYZ=    2.4619    0.6051    9.4429 Q=   -0.8200 A=    0.0000 R=    0.0000 C=    0.0000
 XYZ=    2.8754    0.9473    8.5991 Q=    0.4100 A=    0.0000 R=    0.0000 C=    0.0000
 XYZ=    2.4131   -0.3932    9.4091 Q=    0.4100 A=    0.0000 R=    0.0000 C=    0.0000
 XYZ=   -6.7541    1.4139   -5.5744 Q=   -0.8200 A=    0.0000 R=    0.0000 C=    0.0000
 XYZ=   -6.0949    1.5003   -6.3214 Q=    0.4100 A=    0.0000 R=    0.0000 C=    0.0000
 XYZ=   -7.6500    1.1716   -5.9468 Q=    0.4100 A=    0.0000 R=    0.0000 C=    0.0000
 XYZ=   -8.9761    2.8630   -2.8712 Q=   -0.8200 A=    0.0000 R=    0.0000 C=    0.0000
 XYZ=   -8.2415    3.1665   -3.4782 Q=    0.4100 A=    0.0000 R=    0.0000 C=    0.0000
 XYZ=   -8.6122    2.7274   -1.9497 Q=    0.4100 A=    0.0000 R=    0.0000 C=    0.0000
 XYZ=    4.9151   -2.7924   -6.8485 Q=   -0.8200 A=    0.0000 R=    0.0000 C=    0.0000
 XYZ=    4.3320   -2.2762   -7.4760 Q=    0.4100 A=    0.0000 R=    0.0000 C=    0.0000
 XYZ=    5.3964   -2.1585   -6.2431 Q=    0.4100 A=    0.0000 R=    0.0000 C=    0.0000
 XYZ=   -9.6395   -0.8469    1.1019 Q=   -0.8200 A=    0.0000 R=    0.0000 C=    0.0000
 XYZ=   -8.7561   -0.4542    0.8461 Q=    0.4100 A=    0.0000 R=    0.0000 C=    0.0000
 XYZ=  -10.0353   -1.3184    0.3139 Q=    0.4100 A=    0.0000 R=    0.0000 C=    0.0000
 XYZ=    4.3689   -7.2352    1.5625 Q=   -0.8200 A=    0.0000 R=    0.0000 C=    0.0000
 XYZ=    3.6745   -7.6573    2.1453 Q=    0.4100 A=    0.0000 R=    0.0000 C=    0.0000
 XYZ=    5.1050   -6.8697    2.1322 Q=    0.4100 A=    0.0000 R=    0.0000 C=    0.0000
 XYZ=   -5.8414   -6.2550   -1.3722 Q=   -0.8200 A=    0.0000 R=    0.0000 C=    0.0000
 XYZ=   -5.3241   -6.8624   -1.9750 Q=    0.4100 A=    0.0000 R=    0.0000 C=    0.0000
 XYZ=   -5.3020   -6.0600   -0.5530 Q=    0.4100 A=    0.0000 R=    0.0000 C=    0.0000
 XYZ=    1.2917   -8.7199   -1.6941 Q=   -0.8200 A=    0.0000 R=    0.0000 C=    0.0000
 XYZ=    2.0057   -8.1644   -2.1204 Q=    0.4100 A=    0.0000 R=    0.0000 C=    0.0000
 XYZ=    1.2125   -9.5906   -2.1796 Q=    0.4100 A=    0.0000 R=    0.0000 C=    0.0000
 XYZ=    3.5063   -1.8243   -8.6685 Q=   -0.8200 A=    0.0000 R=    0.0000 C=    0.0000
 XYZ=    3.7286   -1.0692   -9.2854 Q=    0.4100 A=    0.0000 R=    0.0000 C=    0.0000
 XYZ=    2.5284   -1.8078   -8.4605 Q=    0.4100 A=    0.0000 R=    0.0000 C=    0.0000
 XYZ=    6.3525   -1.4682   -5.6765 Q=   -0.8200 A=    0.0000 R=    0.0000 C=    0.0000
 XYZ=    7.0085   -1.3239   -6.4173 Q=    0.4100 A=    0.0000 R=    0.0000 C=    0.0000
 XYZ=    6.6640   -2.2218   -5.0977 Q=    0.4100 A=    0.0000 R=    0.0000 C=    0.0000
 XYZ=   -6.0500    7.4909    3.0156 Q=   -0.8200 A=    0.0000 R=    0.0000 C=    0.0000
 XYZ=   -6.4814    8.1321    3.6503 Q=    0.4100 A=    0.0000 R=    0.0000 C=    0.0000
 XYZ=   -5.0590    7.6242    3.0295 Q=    0.4100 A=    0.0000 R=    0.0000 C=    0.0000
 XYZ=    7.0218   -1.3267    6.3075 Q=   -0.8200 A=    0.0000 R=    0.0000 C=    0.0000
 XYZ=    6.6712   -0.4499    5.9784 Q=    0.4100 A=    0.0000 R=    0.0000 C=    0.0000
 XYZ=    7.9740   -1.2187    6.5936 Q=    0.4100 A=    0.0000 R=    0.0000 C=    0.0000
 XYZ=    1.7612    7.5914   -3.6819 Q=   -0.8200 A=    0.0000 R=    0.0000 C=    0.0000
 XYZ=    1.7382    7.9495   -4.6153 Q=    0.4100 A=    0.0000 R=    0.0000 C=    0.0000
 XYZ=    2.1180    6.6572   -3.6921 Q=    0.4100 A=    0.0000 R=    0.0000 C=    0.0000
 XYZ=   -8.1852   -0.2243    5.0934 Q=   -0.8200 A=    0.0000 R=    0.0000 C=    0.0000
 XYZ=   -8.0775   -0.7766    4.2668 Q=    0.4100 A=    0.0000 R=    0.0000 C=    0.0000
 XYZ=   -7.3353    0.2697    5.2773 Q=    0.4100 A=    0.0000 R=    0.0000 C=    0.0000
 XYZ=    5.8745    5.2940   -2.1606 Q=   -0.8200 A=    0.0000 R=    0.0000 C=    0.0000
 XYZ=    5.0327    5.5028   -1.6627 Q=    0.4100 A=    0.0000 R=    0.0000 C=    0.0000
 XYZ=    6.6532    5.3464   -1.5355 Q=    0.4100 A=    0.0000 R=    0.0000 C=    0.0000
 XYZ=    8.5439   -0.1318   -3.2323 Q=   -0.8200 A=    0.0000 R=    0.0000 C=    0.0000
 XYZ=    7.7155    0.2673   -3.6253 Q=    0.4100 A=    0.0000 R=    0.0000 C=    0.0000
 XYZ=    8.3043   -0.6661   -2.4217 Q=    0.4100 A=    0.0000 R=    0.0000 C=    0.0000
 XYZ=   -7.0797   -2.4536    3.5379 Q=   -0.8200 A=    0.0000 R=    0.0000 C=    0.0000
 XYZ=   -7.6128   -3.1183    3.0144 Q=    0.4100 A=    0.0000 R=    0.0000 C=    0.0000
 XYZ=   -6.6873   -2.9003    4.3420 Q=    0.4100 A=    0.0000 R=    0.0000 C=    0.0000
 XYZ=    5.6061    4.0169    6.7820 Q=   -0.8200 A=    0.0000 R=    0.0000 C=    0.0000
 XYZ=    6.3800    4.3303    7.3323 Q=    0.4100 A=    0.0000 R=    0.0000 C=    0.0000
 XYZ=    5.9116    3.8428    5.8458 Q=    0.4100 A=    0.0000 R=    0.0000 C=    0.0000
 XYZ=    4.0480    3.3201   -7.1094 Q=   -0.8200 A=    0.0000 R=    0.0000 C=    0.0000
 XYZ=    4.9818    3.2305   -7.4557 Q=    0.4100 A=    0.0000 R=    0.0000 C=    0.0000
 XYZ=    4.0719    3.6702   -6.1730 Q=    0.4100 A=    0.0000 R=    0.0000 C=    0.0000
 XYZ=   -3.2596   -7.6581    1.2615 Q=   -0.8200 A=    0.0000 R=    0.0000 C=    0.0000
 XYZ=   -2.5290   -7.3608    1.8762 Q=    0.4100 A=    0.0000 R=    0.0000 C=    0.0000
 XYZ=   -2.8791   -7.8388    0.3545 Q=    0.4100 A=    0.0000 R=    0.0000 C=    0.0000
 XYZ=    5.6278    1.7290    7.2827 Q=   -0.8200 A=    0.0000 R=    0.0000 C=    0.0000
 XYZ=    6.1585    1.4980    8.0982 Q=    0.4100 A=    0.0000 R=    0.0000 C=    0.0000
 XYZ=    5.5781    2.7233    7.1879 Q=    0.4100 A=    0.0000 R=    0.0000 C=    0.0000
 XYZ=   -0.2747   -8.6060   -0.0118 Q=   -0.8200 A=    0.0000 R=    0.0000 C=    0.0000
 XYZ=    0.4383   -8.6664   -0.7105 Q=    0.4100 A=    0.0000 R=    0.0000 C=    0.0000
 XYZ=   -1.1648   -8.4920   -0.4530 Q=    0.4100 A=    0.0000 R=    0.0000 C=    0.0000
 XYZ=   -2.9131    7.0188   -5.9717 Q=   -0.8200 A=    0.0000 R=    0.0000 C=    0.0000
 XYZ=   -3.0395    7.1802   -4.9929 Q=    0.4100 A=    0.0000 R=    0.0000 C=    0.0000
 XYZ=   -2.8467    6.0355   -6.1414 Q=    0.4100 A=    0.0000 R=    0.0000 C=    0.0000
 XYZ=    2.6492   -7.8852    3.2527 Q=   -0.8200 A=    0.0000 R=    0.0000 C=    0.0000
 XYZ=    1.8681   -8.5053    3.3261 Q=    0.4100 A=    0.0000 R=    0.0000 C=    0.0000
 XYZ=    2.5616   -7.1568    3.9323 Q=    0.4100 A=    0.0000 R=    0.0000 C=    0.0000
 XYZ=    7.5245   -3.5146   -4.6470 Q=   -0.8200 A=    0.0000 R=    0.0000 C=    0.0000
 XYZ=    8.3592   -3.0210   -4.4026 Q=    0.4100 A=    0.0000 R=    0.0000 C=    0.0000
 XYZ=    7.2216   -4.0635   -3.8679 Q=    0.4100 A=    0.0000 R=    0.0000 C=    0.0000
 XYZ=   -0.7788    8.8591    5.9502 Q=   -0.8200 A=    0.0000 R=    0.0000 C=    0.0000
 XYZ=   -0.0847    8.6110    5.2744 Q=    0.4100 A=    0.0000 R=    0.0000 C=    0.0000
 XYZ=   -0.9002    8.1050    6.5956 Q=    0.4100 A=    0.0000 R=    0.0000 C=    0.0000
 XYZ=   -1.0519    2.8086   -9.7121 Q=   -0.8200 A=    0.0000 R=    0.0000 C=    0.0000
 XYZ=   -1.0930    2.9978   -8.7310 Q=    0.4100 A=    0.0000 R=    0.0000 C=    0.0000
 XYZ=   -1.5503    3.5186  -10.2096 Q=    0.4100 A=    0.0000 R=    0.0000 C=    0.0000
 XYZ=   -5.8360   -5.2718    2.5874 Q=   -0.8200 A=    0.0000 R=    0.0000 C=    0.0000
 XYZ=   -6.6570   -4.8863    2.1664 Q=    0.4100 A=    0.0000 R=    0.0000 C=    0.0000
 XYZ=   -5.5319   -4.6765    3.3312 Q=    0.4100 A=    0.0000 R=    0.0000 C=    0.0000
 XYZ=   -6.3222    5.1455    6.2156 Q=   -0.8200 A=    0.0000 R=    0.0000 C=    0.0000
 XYZ=   -7.2056    5.1395    6.6842 Q=    0.4100 A=    0.0000 R=    0.0000 C=    0.0000
 XYZ=   -5.6913    5.7505    6.7014 Q=    0.4100 A=    0.0000 R=    0.0000 C=    0.0000
 XYZ=   -6.1064    7.5389   -1.2815 Q=   -0.8200 A=    0.0000 R=    0.0000 C=    0.0000
 XYZ=   -6.8368    7.9329   -1.8396 Q=    0.4100 A=    0.0000 R=    0.0000 C=    0.0000
 XYZ=   -6.4430    7.3850   -0.3525 Q=    0.4100 A=    0.0000 R=    0.0000 C=    0.0000
 XYZ=   -3.3071    0.7010   10.0581 Q=   -0.8200 A=    0.0000 R=    0.0000 C=    0.0000
 XYZ=   -3.9526    0.8352   10.8100 Q=    0.4100 A=    0.0000 R=    0.0000 C=    0.0000
 XYZ=   -3.3811    1.4634    9.4152 Q=    0.4100 A=    0.0000 R=    0.0000 C=    0.0000
 XYZ=   -2.9738    8.9315   -0.2579 Q=   -0.8200 A=    0.0000 R=    0.0000 C=    0.0000
 XYZ=   -3.6527    9.1934    0.4281 Q=    0.4100 A=    0.0000 R=    0.0000 C=    0.0000
 XYZ=   -3.4263    8.7942   -1.1390 Q=    0.4100 A=    0.0000 R=    0.0000 C=    0.0000
 XYZ=   -2.3547   -8.3503   -0.7469 Q=   -0.8200 A=    0.0000 R=    0.0000 C=    0.0000
 XYZ=   -2.3911   -9.3378   -0.5931 Q=    0.4100 A=    0.0000 R=    0.0000 C=    0.0000
 XYZ=   -2.9471   -8.1108   -1.5161 Q=    0.4100 A=    0.0000 R=    0.0000 C=    0.0000
 XYZ=    9.1512    2.5077    0.4736 Q=   -0.8200 A=    0.0000 R=    0.0000 C=    0.0000
 XYZ=    9.4621    2.3451    1.4101 Q=    0.4100 A=    0.0000 R=    0.0000 C=    0.0000
 XYZ=    8.3280    1.9680    0.2973 Q=    0.4100 A=    0.0000 R=    0.0000 C=    0.0000
 XYZ=    6.3363   -7.4076    0.2539 Q=   -0.8200 A=    0.0000 R=    0.0000 C=    0.0000
 XYZ=    6.1366   -7.1900   -0.7015 Q=    0.4100 A=    0.0000 R=    0.0000 C=    0.0000
 XYZ=    5.4799   -7.4793    0.7654 Q=    0.4100 A=    0.0000 R=    0.0000 C=    0.0000
 XYZ=    7.6327   -5.5015    0.6507 Q=   -0.8200 A=    0.0000 R=    0.0000 C=    0.0000
 XYZ=    7.4888   -5.1567    1.5783 Q=    0.4100 A=    0.0000 R=    0.0000 C=    0.0000
 XYZ=    7.0337   -6.2860    0.4901 Q=    0.4100 A=    0.0000 R=    0.0000 C=    0.0000
 XYZ=   -9.5609    1.5560    0.9010 Q=   -0.8200 A=    0.0000 R=    0.0000 C=    0.0000
 XYZ=  -10.4553    1.9073    0.6238 Q=    0.4100 A=    0.0000 R=    0.0000 C=    0.0000
 XYZ=   -9.6488    0.5976    1.1725 Q=    0.4100 A=    0.0000 R=    0.0000 C=    0.0000
 XYZ=   -1.2178   -0.4095   10.4447 Q=   -0.8200 A=    0.0000 R=    0.0000 C=    0.0000
 XYZ=   -2.1245    0.0021   10.3526 Q=    0.4100 A=    0.0000 R=    0.0000 C=    0.0000
 XYZ=   -0.5810    0.0440    9.8211 Q=    0.4100 A=    0.0000 R=    0.0000 C=    0.0000
 XYZ=    0.1413   -4.8606    7.7651 Q=   -0.8200 A=    0.0000 R=    0.0000 C=    0.0000
 XYZ=    0.7676   -5.4942    7.3109 Q=    0.4100 A=    0.0000 R=    0.0000 C=    0.0000
 XYZ=   -0.5625   -5.3787    8.2512 Q=    0.4100 A=    0.0000 R=    0.0000 C=    0.0000
 XYZ=    6.7115    2.6248   -4.8260 Q=   -0.8200 A=    0.0000 R=    0.0000 C=    0.0000
 XYZ=    7.6649    2.8744   -4.6559 Q=    0.4100 A=    0.0000 R=    0.0000 C=    0.0000
 XYZ=    6.5029    2.7475   -5.7963 Q=    0.4100 A=    0.0000 R=    0.0000 C=    0.0000
 XYZ=   -4.1545    8.8240   -2.2202 Q=   -0.8200 A=    0.0000 R=    0.0000 C=    0.0000
 XYZ=   -4.5071    9.5490   -2.8119 Q=    0.4100 A=    0.0000 R=    0.0000 C=    0.0000
 XYZ=   -4.9169    8.3697   -1.7593 Q=    0.4100 A=    0.0000 R=    0.0000 C=    0.0000
 XYZ=   -7.9238   -4.2235    1.9723 Q=   -0.8200 A=    0.0000 R=    0.0000 C=    0.0000
 XYZ=   -8.0033   -3.7920    1.0737 Q=    0.4100 A=    0.0000 R=    0.0000 C=    0.0000
 XYZ=   -8.6964   -4.8424    2.1143 Q=    0.4100 A=    0.0000 R=    0.0000 C=    0.0000
 XYZ=    5.9086   -4.8422   -6.2279 Q=   -0.8200 A=    0.0000 R=    0.0000 C=    0.0000
 XYZ=    6.5959   -4.5234   -5.5752 Q=    0.4100 A=    0.0000 R=    0.0000 C=    0.0000
 XYZ=    5.4292   -4.0559   -6.6177 Q=    0.4100 A=    0.0000 R=    0.0000 C=    0.0000
 XYZ=    8.1071    1.9182    4.5992 Q=   -0.8200 A=    0.0000 R=    0.0000 C=    0.0000
 XYZ=    8.8037    1.6807    3.9222 Q=    0.4100 A=    0.0000 R=    0.0000 C=    0.0000
 XYZ=    8.5237    1.9541    5.5076 Q=    0.4100 A=    0.0000 R=    0.0000 C=    0.0000
 XYZ=   -4.2936   -0.1711  -10.1502 Q=   -0.8200 A=    0.0000 R=    0.0000 C=    0.0000
 XYZ=   -4.9721   -0.8354  -10.4635 Q=    0.4100 A=    0.0000 R=    0.0000 C=    0.0000
 XYZ=   -4.1214   -0.3055   -9.1744 Q=    0.4100 A=    0.0000 R=    0.0000 C=    0.0000
 XYZ=   -9.7829   -2.3867   -0.8103 Q=   -0.8200 A=    0.0000 R=    0.0000 C=    0.0000
 XYZ=   -9.6831   -1.8719   -1.6618 Q=    0.4100 A=    0.0000 R=    0.0000 C=    0.0000
 XYZ=   -8.8891   -2.7295   -0.5214 Q=    0.4100 A=    0.0000 R=    0.0000 C=    0.0000
 XYZ=    2.5778   -1.7973    9.3361 Q=   -0.8200 A=    0.0000 R=    0.0000 C=    0.0000
 XYZ=    1.9710   -2.5501    9.5915 Q=    0.4100 A=    0.0000 R=    0.0000 C=    0.0000
 XYZ=    3.5289   -2.0992    9.4008 Q=    0.4100 A=    0.0000 R=    0.0000 C=    0.0000
 XYZ=   10.0968   -1.2731   -0.4378 Q=   -0.8200 A=    0.0000 R=    0.0000 C=    0.0000
 XYZ=   10.1208   -0.9981    0.5234 Q=    0.4100 A=    0.0000 R=    0.0000 C=    0.0000
 XYZ=    9.1623   -1.1921   -0.7844 Q=    0.4100 A=    0.0000 R=    0.0000 C=    0.0000
 XYZ=    4.1786    4.6054    8.8546 Q=   -0.8200 A=    0.0000 R=    0.0000 C=    0.0000
 XYZ=    3.2693    4.2550    8.6302 Q=    0.4100 A=    0.0000 R=    0.0000 C=    0.0000
 XYZ=    4.8008    4.4307    8.0914 Q=    0.4100 A=    0.0000 R=    0.0000 C=    0.0000
 XYZ=   -4.5241   -7.6956   -5.1965 Q=   -0.8200 A=    0.0000 R=    0.0000 C=    0.0000
 XYZ=   -5.0089   -7.3177   -5.9853 Q=    0.4100 A=    0.0000 R=    0.0000 C=    0.0000
 XYZ=   -3.5656   -7.4121   -5.2272 Q=    0.4100 A=    0.0000 R=    0.0000 C=    0.0000
 XYZ=   -2.4147    9.5186    4.1610 Q=   -0.8200 A=    0.0000 R=    0.0000 C=    0.0000
 XYZ=   -1.7166    9.2870    4.8385 Q=    0.4100 A=    0.0000 R=    0.0000 C=    0.0000
 XYZ=   -3.1484   10.0357    4.6019 Q=    0.4100 A=    0.0000 R=    0.0000 C=    0.0000
 XYZ=    9.5806    1.3442    2.7777 Q=   -0.8200 A=    0.0000 R=    0.0000 C=    0.0000
 XYZ=    8.8625    0.8335    2.3049 Q=    0.4100 A=    0.0000 R=    0.0000 C=    0.0000
 XYZ=   10.4437    0.8433    2.7129 Q=    0.4100 A=    0.0000 R=    0.0000 C=    0.0000
 XYZ=    5.9694   -3.1314    7.3426 Q=   -0.8200 A=    0.0000 R=    0.0000 C=    0.0000
 XYZ=    6.4948   -2.4817    6.7933 Q=    0.4100 A=    0.0000 R=    0.0000 C=    0.0000
 XYZ=    6.5632   -3.8843    7.6266 Q=    0.4100 A=    0.0000 R=    0.0000 C=    0.0000
 XYZ=    0.9850   -3.5440    9.5505 Q=   -0.8200 A=    0.0000 R=    0.0000 C=    0.0000
 XYZ=    0.7150   -4.0304    8.7196 Q=    0.4100 A=    0.0000 R=    0.0000 C=    0.0000
 XYZ=    0.1690   -3.2002   10.0154 Q=    0.4100 A=    0.0000 R=    0.0000 C=    0.0000
 XYZ=   -9.6980    2.8108    2.9196 Q=   -0.8200 A=    0.0000 R=    0.0000 C=    0.0000
 XYZ=   -9.5585    2.3255    2.0564 Q=    0.4100 A=    0.0000 R=    0.0000 C=    0.0000
 XYZ=   -8.8681    3.3165    3.1555 Q=    0.4100 A=    0.0000 R=    0.0000 C=    0.0000
 XYZ=   -9.4650    0.8516   -3.8795 Q=   -0.8200 A=    0.0000 R=    0.0000 C=    0.0000
 XYZ=  -10.4408    0.6478   -3.9590 Q=    0.4100 A=    0.0000 R=    0.0000 C=    0.0000
 XYZ=   -9.3458    1.7569   -3.4716 Q=    0.4100 A=    0.0000 R=    0.0000 C=    0.0000
 XYZ=   -4.4179   -8.0051   -2.5751 Q=   -0.8200 A=    0.0000 R=    0.0000 C=    0.0000
 XYZ=   -4.2968   -7.8917   -3.5613 Q=    0.4100 A=    0.0000 R=    0.0000 C=    0.0000
 XYZ=   -4.3955   -8.9784   -2.3463 Q=    0.4100 A=    0.0000 R=    0.0000 C=    0.0000
 XYZ=   -6.5665   -0.4076    7.7101 Q=   -0.8200 A=    0.0000 R=    0.0000 C=    0.0000
 XYZ=   -7.3622   -1.0127    7.6822 Q=    0.4100 A=    0.0000 R=    0.0000 C=    0.0000
 XYZ=   -5.8958   -0.7686    8.3582 Q=    0.4100 A=    0.0000 R=    0.0000 C=    0.0000
 XYZ=   -5.1406    4.3834    9.5630 Q=   -0.8200 A=    0.0000 R=    0.0000 C=    0.0000
 XYZ=   -4.5827    3.6260    9.2236 Q=    0.4100 A=    0.0000 R=    0.0000 C=    0.0000
 XYZ=   -4.8710    4.6018   10.5009 Q=    0.4100 A=    0.0000 R=    0.0000 C=    0.0000
 XYZ=    4.9959   -7.7872   -3.6152 Q=   -0.8200 A=    0.0000 R=    0.0000 C=    0.0000
 XYZ=    5.6878   -8.3611   -3.1770 Q=    0.4100 A=    0.0000 R=    0.0000 C=    0.0000
 XYZ=    5.1855   -7.7263   -4.5952 Q=    0.4100 A=    0.0000 R=    0.0000 C=    0.0000
 XYZ=    1.7459    9.3241   -2.0902 Q=   -0.8200 A=    0.0000 R=    0.0000 C=    0.0000
 XYZ=    2.6649    9.7145   -2.0353 Q=    0.4100 A=    0.0000 R=    0.0000 C=    0.0000
 XYZ=    1.7410    8.5749   -2.7525 Q=    0.4100 A=    0.0000 R=    0.0000 C=    0.0000
 XYZ=    1.2685   -6.8785    6.9562 Q=   -0.8200 A=    0.0000 R=    0.0000 C=    0.0000
 XYZ=    1.9111   -6.8082    6.1931 Q=    0.4100 A=    0.0000 R=    0.0000 C=    0.0000
 XYZ=    1.6798   -7.4203    7.6892 Q=    0.4100 A=    0.0000 R=    0.0000 C=    0.0000
 XYZ=   -4.8757   -1.0502    9.5220 Q=   -0.8200 A=    0.0000 R=    0.0000 C=    0.0000
 XYZ=   -4.1136   -0.4096    9.6170 Q=    0.4100 A=    0.0000 R=    0.0000 C=    0.0000
 XYZ=   -5.4172   -1.0508   10.3628 Q=    0.4100 A=    0.0000 R=    0.0000 C=    0.0000
 XYZ=   -2.0663    0.7690  -10.5243 Q=   -0.8200 A=    0.0000 R=    0.0000 C=    0.0000
 XYZ=   -3.0441    0.5591  -10.5183 Q=    0.4100 A=    0.0000 R=    0.0000 C=    0.0000
 XYZ=   -1.9083    1.6347  -10.0493 Q=    0.4100 A=    0.0000 R=    0.0000 C=    0.0000
 XYZ=   -4.9237    6.2211    8.0305 Q=   -0.8200 A=    0.0000 R=    0.0000 C=    0.0000
 XYZ=   -5.0615    7.1000    8.4872 Q=    0.4100 A=    0.0000 R=    0.0000 C=    0.0000
 XYZ=   -5.1655    5.4791    8.6557 Q=    0.4100 A=    0.0000 R=    0.0000 C=    0.0000
 XYZ=    8.7322    5.3505    2.3859 Q=   -0.8200 A=    0.0000 R=    0.0000 C=    0.0000
 XYZ=    9.4574    4.6754    2.5216 Q=    0.4100 A=    0.0000 R=    0.0000 C=    0.0000
 XYZ=    8.0479    4.9825    1.7564 Q=    0.4100 A=    0.0000 R=    0.0000 C=    0.0000
 XYZ=   -1.5227   10.8095   -0.9345 Q=   -0.8200 A=    0.0000 R=    0.0000 C=    0.0000
 XYZ=   -1.8511    9.8880   -0.7274 Q=    0.4100 A=    0.0000 R=    0.0000 C=    0.0000
 XYZ=   -2.3031   11.4111   -1.1046 Q=    0.4100 A=    0.0000 R=    0.0000 C=    0.0000
 XYZ=    4.9745   -2.2241    9.4212 Q=   -0.8200 A=    0.0000 R=    0.0000 C=    0.0000
 XYZ=    5.2626   -2.4973    8.5034 Q=    0.4100 A=    0.0000 R=    0.0000 C=    0.0000
 XYZ=    5.6567   -1.6081    9.8151 Q=    0.4100 A=    0.0000 R=    0.0000 C=    0.0000
 XYZ=    0.6910   -8.9753    3.1492 Q=   -0.8200 A=    0.0000 R=    0.0000 C=    0.0000
 XYZ=   -0.0131   -8.9035    3.8558 Q=    0.4100 A=    0.0000 R=    0.0000 C=    0.0000
 XYZ=    0.3866   -9.6098    2.4387 Q=    0.4100 A=    0.0000 R=    0.0000 C=    0.0000
 XYZ=    3.0952    2.4536   -9.5840 Q=   -0.8200 A=    0.0000 R=    0.0000 C=    0.0000
 XYZ=    3.5600    2.8412   -8.7879 Q=    0.4100 A=    0.0000 R=    0.0000 C=    0.0000
 XYZ=    3.4166    1.5188   -9.7352 Q=    0.4100 A=    0.0000 R=    0.0000 C=    0.0000
 XYZ=   -0.6881    8.2543   -6.1712 Q=   -0.8200 A=    0.0000 R=    0.0000 C=    0.0000
 XYZ=   -0.9707    9.2098   -6.0862 Q=    0.4100 A=    0.0000 R=    0.0000 C=    0.0000
 XYZ=   -1.4961    7.6653   -6.1576 Q=    0.4100 A=    0.0000 R=    0.0000 C=    0.0000
 XYZ=   -0.1424  -10.4363    1.5733 Q=   -0.8200 A=    0.0000 R=    0.0000 C=    0.0000
 XYZ=    0.1757  -11.2312    1.0567 Q=    0.4100 A=    0.0000 R=    0.0000 C=    0.0000
 XYZ=   -0.1792   -9.6396    0.9700 Q=    0.4100 A=    0.0000 R=    0.0000 C=    0.0000
 XYZ=   -8.9271    1.1051   -6.0654 Q=   -0.8200 A=    0.0000 R=    0.0000 C=    0.0000
 XYZ=   -9.0990    0.9528   -5.0921 Q=    0.4100 A=    0.0000 R=    0.0000 C=    0.0000
 XYZ=   -9.6153    0.6203   -6.6052 Q=    0.4100 A=    0.0000 R=    0.0000 C=    0.0000
 XYZ=    9.4434   -2.2522   -3.9171 Q=   -0.8200 A=    0.0000 R=    0.0000 C=    0.0000
 XYZ=    9.2073   -1.3089   -3.6836 Q=    0.4100 A=    0.0000 R=    0.0000 C=    0.0000
 XYZ=    9.9945   -2.6493   -3.1832 Q=    0.4100 A=    0.0000 R=    0.0000 C=    0.0000
 XYZ=    0.0046   11.0061    0.9493 Q=   -0.8200 A=    0.0000 R=    0.0000 C=    0.0000
 XYZ=   -0.5334   10.9371    0.1091 Q=    0.4100 A=    0.0000 R=    0.0000 C=    0.0000
 XYZ=    0.7276   10.3153    0.9398 Q=    0.4100 A=    0.0000 R=    0.0000 C=    0.0000
 XYZ=   -4.6962    9.6262    1.3428 Q=   -0.8200 A=    0.0000 R=    0.0000 C=    0.0000
 XYZ=   -5.5088    9.6021    0.7604 Q=    0.4100 A=    0.0000 R=    0.0000 C=    0.0000
 XYZ=   -4.7412   10.4234    1.9449 Q=    0.4100 A=    0.0000 R=    0.0000 C=    0.0000
 XYZ=   -0.9425   -2.7600   10.5487 Q=   -0.8200 A=    0.0000 R=    0.0000 C=    0.0000
 XYZ=   -0.8570   -2.7276   11.5445 Q=    0.4100 A=    0.0000 R=    0.0000 C=    0.0000
 XYZ=   -1.0030   -1.8289   10.1889 Q=    0.4100 A=    0.0000 R=    0.0000 C=    0.0000
 XYZ=   -2.7232    8.4160    8.6910 Q=   -0.8200 A=    0.0000 R=    0.0000 C=    0.0000
 XYZ=   -2.8769    9.3233    8.2996 Q=    0.4100 A=    0.0000 R=    0.0000 C=    0.0000
 XYZ=   -2.0331    7.9330    8.1520 Q=    0.4100 A=    0.0000 R=    0.0000 C=    0.0000
 XYZ=    5.8906   -7.2985   -6.0459 Q=   -0.8200 A=    0.0000 R=    0.0000 C=    0.0000
 XYZ=    5.6861   -6.3208   -5.9962 Q=    0.4100 A=    0.0000 R=    0.0000 C=    0.0000
 XYZ=    6.0017   -7.5675   -7.0026 Q=    0.4100 A=    0.0000 R=    0.0000 C=    0.0000
 XYZ=   -1.6554   11.3881    2.6852 Q=   -0.8200 A=    0.0000 R=    0.0000 C=    0.0000
 XYZ=   -0.9968   11.2438    1.9467 Q=    0.4100 A=    0.0000 R=    0.0000 C=    0.0000
 XYZ=   -1.8454   10.5166    3.1373 Q=    0.4100 A=    0.0000 R=    0.0000 C=    0.0000
 XYZ=    8.0226    5.9915   -1.0448 Q=   -0.8200 A=    0.0000 R=    0.0000 C=    0.0000
 XYZ=    8.6475    6.7486   -0.8545 Q=    0.4100 A=    0.0000 R=    0.0000 C=    0.0000
 XYZ=    7.9334    5.4199   -0.2290 Q=    0.4100 A=    0.0000 R=    0.0000 C=    0.0000
 XYZ=   10.0391    1.6158   -3.2586 Q=   -0.8200 A=    0.0000 R=    0.0000 C=    0.0000
 XYZ=    9.4643    0.7976   -3.2444 Q=    0.4100 A=    0.0000 R=    0.0000 C=    0.0000
 XYZ=   10.4089    1.7792   -2.3439 Q=    0.4100 A=    0.0000 R=    0.0000 C=    0.0000
 XYZ=   -7.4391   -7.8700   -0.3688 Q=   -0.8200 A=    0.0000 R=    0.0000 C=    0.0000
 XYZ=   -8.1760   -8.0218   -1.0275 Q=    0.4100 A=    0.0000 R=    0.0000 C=    0.0000
 XYZ=   -6.8598   -7.1183   -0.6841 Q=    0.4100 A=    0.0000 R=    0.0000 C=    0.0000
 XYZ=    3.8718    0.1526   -9.8534 Q=   -0.8200 A=    0.0000 R=    0.0000 C=    0.0000
 XYZ=    4.8304    0.3220  -10.0824 Q=    0.4100 A=    0.0000 R=    0.0000 C=    0.0000
 XYZ=    3.3520   -0.0077  -10.6926 Q=    0.4100 A=    0.0000 R=    0.0000 C=    0.0000
 XYZ=    5.2752   -3.0791   -9.5924 Q=   -0.8200 A=    0.0000 R=    0.0000 C=    0.0000
 XYZ=    5.4414   -3.9252   -9.0859 Q=    0.4100 A=    0.0000 R=    0.0000 C=    0.0000
 XYZ=    4.4340   -2.6519   -9.2608 Q=    0.4100 A=    0.0000 R=    0.0000 C=    0.0000
 XYZ=    1.2097    2.6765  -11.0545 Q=   -0.8200 A=    0.0000 R=    0.0000 C=    0.0000
 XYZ=    0.4014    2.4678  -10.5039 Q=    0.4100 A=    0.0000 R=    0.0000 C=    0.0000
 XYZ=    2.0158    2.7104  -10.4636 Q=    0.4100 A=    0.0000 R=    0.0000 C=    0.0000
 XYZ=   -1.3150   -8.5335    4.4256 Q=   -0.8200 A=    0.0000 R=    0.0000 C=    0.0000
 XYZ=   -1.1240   -8.2232    5.3569 Q=    0.4100 A=    0.0000 R=    0.0000 C=    0.0000
 XYZ=   -2.1677   -9.0559    4.4167 Q=    0.4100 A=    0.0000 R=    0.0000 C=    0.0000
 XYZ=   -0.9119   -7.8774    6.7917 Q=   -0.8200 A=    0.0000 R=    0.0000 C=    0.0000
 XYZ=   -0.0497   -7.3716    6.7621 Q=    0.4100 A=    0.0000 R=    0.0000 C=    0.0000
 XYZ=   -1.6751   -7.2328    6.8351 Q=    0.4100 A=    0.0000 R=    0.0000 C=    0.0000
 XYZ=  -10.6719   -2.2775   -3.9631 Q=   -0.8200 A=    0.0000 R=    0.0000 C=    0.0000
 XYZ=  -11.2795   -1.4833   -3.9764 Q=    0.4100 A=    0.0000 R=    0.0000 C=    0.0000
 XYZ=   -9.7376   -1.9792   -3.7679 Q=    0.4100 A=    0.0000 R=    0.0000 C=    0.0000
 XYZ=    3.6761   10.5832    0.7341 Q=   -0.8200 A=    0.0000 R=    0.0000 C=    0.0000
 XYZ=    2.7867   10.1476    0.5952 Q=    0.4100 A=    0.0000 R=    0.0000 C=    0.0000
 XYZ=    3.5804   11.5740    0.6387 Q=    0.4100 A=    0.0000 R=    0.0000 C=    0.0000
 XYZ=   -4.7590   -8.8925    2.6530 Q=   -0.8200 A=    0.0000 R=    0.0000 C=    0.0000
 XYZ=   -4.1387   -8.4230    2.0247 Q=    0.4100 A=    0.0000 R=    0.0000 C=    0.0000
 XYZ=   -5.6015   -8.3621    2.7478 Q=    0.4100 A=    0.0000 R=    0.0000 C=    0.0000
 XYZ=    9.6886   -6.0784   -0.4496 Q=   -0.8200 A=    0.0000 R=    0.0000 C=    0.0000
 XYZ=    8.9608   -5.7693    0.1626 Q=    0.4100 A=    0.0000 R=    0.0000 C=    0.0000
 XYZ=    9.3363   -6.1358   -1.3837 Q=    0.4100 A=    0.0000 R=    0.0000 C=    0.0000
 XYZ=   -2.8339   -6.4764    7.0420 Q=   -0.8200 A=    0.0000 R=    0.0000 C=    0.0000
 XYZ=   -3.5544   -7.1336    6.8208 Q=    0.4100 A=    0.0000 R=    0.0000 C=    0.0000
 XYZ=   -2.7095   -6.4394    8.0335 Q=    0.4100 A=    0.0000 R=    0.0000 C=    0.0000
 XYZ=   -5.4701    1.8203   -9.6978 Q=   -0.8200 A=    0.0000 R=    0.0000 C=    0.0000
 XYZ=   -5.2047    2.5991  -10.2660 Q=    0.4100 A=    0.0000 R=    0.0000 C=    0.0000
 XYZ=   -4.9310    1.0191   -9.9577 Q=    0.4100 A=    0.0000 R=    0.0000 C=    0.0000
 XYZ=   -7.8093    1.6872    9.0371 Q=   -0.8200 A=    0.0000 R=    0.0000 C=    0.0000
 XYZ=   -7.2795    0.9146    8.6873 Q=    0.4100 A=    0.0000 R=    0.0000 C=    0.0000
 XYZ=   -8.6240    1.8159    8.4715 Q=    0.4100 A=    0.0000 R=    0.0000 C=    0.0000
 XYZ=    1.5462    8.4565   -5.9791 Q=   -0.8200 A=    0.0000 R=    0.0000 C=    0.0000
 XYZ=    0.5565    8.3267   -6.0399 Q=    0.4100 A=    0.0000 R=    0.0000 C=    0.0000
 XYZ=    1.8897    8.8122   -6.8482 Q=    0.4100 A=    0.0000 R=    0.0000 C=    0.0000
 XYZ=   -0.6722   -3.1718  -11.8665 Q=   -0.8200 A=    0.0000 R=    0.0000 C=    0.0000
 XYZ=   -0.7065   -4.0974  -12.2435 Q=    0.4100 A=    0.0000 R=    0.0000 C=    0.0000
 XYZ=   -0.9384   -3.1944  -10.9028 Q=    0.4100 A=    0.0000 R=    0.0000 C=    0.0000
 XYZ=    5.8472   -5.1409   -8.5677 Q=   -0.8200 A=    0.0000 R=    0.0000 C=    0.0000
 XYZ=    5.8655   -4.9694   -7.5827 Q=    0.4100 A=    0.0000 R=    0.0000 C=    0.0000
 XYZ=    6.7471   -5.4574   -8.8677 Q=    0.4100 A=    0.0000 R=    0.0000 C=    0.0000
 XYZ=    5.0061    2.6594   10.1783 Q=   -0.8200 A=    0.0000 R=    0.0000 C=    0.0000
 XYZ=    4.2723    2.4304   10.8179 Q=    0.4100 A=    0.0000 R=    0.0000 C=    0.0000
 XYZ=    4.7558    3.4794    9.6636 Q=    0.4100 A=    0.0000 R=    0.0000 C=    0.0000
 XYZ=   -9.8644    0.0279    6.6252 Q=   -0.8200 A=    0.0000 R=    0.0000 C=    0.0000
 XYZ=   -9.6441    0.9251    7.0080 Q=    0.4100 A=    0.0000 R=    0.0000 C=    0.0000
 XYZ=   -9.2268   -0.1841    5.8845 Q=    0.4100 A=    0.0000 R=    0.0000 C=    0.0000
 XYZ=   -6.5867   -7.5510    3.0777 Q=   -0.8200 A=    0.0000 R=    0.0000 C=    0.0000
 XYZ=   -7.4553   -7.6996    2.6049 Q=    0.4100 A=    0.0000 R=    0.0000 C=    0.0000
 XYZ=   -6.2925   -6.6046    2.9447 Q=    0.4100 A=    0.0000 R=    0.0000 C=    0.0000
 XYZ=    8.2505    5.2689    4.7064 Q=   -0.8200 A=    0.0000 R=    0.0000 C=    0.0000
 XYZ=    8.6267    5.4882    3.8062 Q=    0.4100 A=    0.0000 R=    0.0000 C=    0.0000
 XYZ=    8.4401    6.0200    5.3389 Q=    0.4100 A=    0.0000 R=    0.0000 C=    0.0000
 XYZ=   -5.3925   -7.0879   -7.3546 Q=   -0.8200 A=    0.0000 R=    0.0000 C=    0.0000
 XYZ=   -5.0212   -6.3554   -7.9253 Q=    0.4100 A=    0.0000 R=    0.0000 C=    0.0000
 XYZ=   -6.2543   -7.4108   -7.7457 Q=    0.4100 A=    0.0000 R=    0.0000 C=    0.0000
 XYZ=   -4.0884    8.5937   -7.3083 Q=   -0.8200 A=    0.0000 R=    0.0000 C=    0.0000
 XYZ=   -3.6114    7.9114   -6.7542 Q=    0.4100 A=    0.0000 R=    0.0000 C=    0.0000
 XYZ=   -3.5904    8.7357   -8.1638 Q=    0.4100 A=    0.0000 R=    0.0000 C=    0.0000
 XYZ=    3.5491    1.6106   11.6042 Q=   -0.8200 A=    0.0000 R=    0.0000 C=    0.0000
 XYZ=    2.9412    1.2287   10.9080 Q=    0.4100 A=    0.0000 R=    0.0000 C=    0.0000
 XYZ=    3.0078    1.9186   12.3866 Q=    0.4100 A=    0.0000 R=    0.0000 C=    0.0000
 XYZ=   -0.1046    4.5034   11.0525 Q=   -0.8200 A=    0.0000 R=    0.0000 C=    0.0000
 XYZ=    0.3462    4.0507   11.8219 Q=    0.4100 A=    0.0000 R=    0.0000 C=    0.0000
 XYZ=   -1.0451    4.7313   11.3044 Q=    0.4100 A=    0.0000 R=    0.0000 C=    0.0000
 XYZ=    7.7629   -7.1997   -4.6064 Q=   -0.8200 A=    0.0000 R=    0.0000 C=    0.0000
 XYZ=    6.8370   -7.1247   -4.9767 Q=    0.4100 A=    0.0000 R=    0.0000 C=    0.0000
 XYZ=    8.4183   -7.2680   -5.3586 Q=    0.4100 A=    0.0000 R=    0.0000 C=    0.0000
 XYZ=    1.1132    6.3874   10.4374 Q=   -0.8200 A=    0.0000 R=    0.0000 C=    0.0000
 XYZ=    0.5154    7.0921   10.8196 Q=    0.4100 A=    0.0000 R=    0.0000 C=    0.0000
 XYZ=    0.7392    5.4838   10.6464 Q=    0.4100 A=    0.0000 R=    0.0000 C=    0.0000
 XYZ=    0.1761   11.0857   -2.5783 Q=   -0.8200 A=    0.0000 R=    0.0000 C=    0.0000
 XYZ=    0.6965   10.2503   -2.4013 Q=    0.4100 A=    0.0000 R=    0.0000 C=    0.0000
 XYZ=   -0.6071   11.1281   -1.9580 Q=    0.4100 A=    0.0000 R=    0.0000 C=    0.0000
 XYZ=  -11.6648   -0.5726    2.5399 Q=   -0.8200 A=    0.0000 R=    0.0000 C=    0.0000
 XYZ=  -11.5633    0.3174    2.9844 Q=    0.4100 A=    0.0000 R=    0.0000 C=    0.0000
 XYZ=  -10.7947   -0.8394    2.1254 Q=    0.4100 A=    0.0000 R=    0.0000 C=    0.0000
 XYZ=   -1.1541   10.8072    7.3227 Q=   -0.8200 A=    0.0000 R=    0.0000 C=    0.0000
 XYZ=   -1.1074   10.1105    6.6068 Q=    0.4100 A=    0.0000 R=    0.0000 C=    0.0000
 XYZ=   -2.0600   10.7903    7.7457 Q=    0.4100 A=    0.0000 R=    0.0000 C=    0.0000
 XYZ=   10.7479    2.3382   -1.0728 Q=   -0.8200 A=    0.0000 R=    0.0000 C=    0.0000
 XYZ=    9.9794    2.5443   -0.4670 Q=    0.4100 A=    0.0000 R=    0.0000 C=    0.0000
 XYZ=   11.2928    3.1649   -1.2130 Q=    0.4100 A=    0.0000 R=    0.0000 C=    0.0000
 XYZ=   -4.9236   -5.4448   -8.9357 Q=   -0.8200 A=    0.0000 R=    0.0000 C=    0.0000
 XYZ=   -4.4457   -5.4808   -9.8134 Q=    0.4100 A=    0.0000 R=    0.0000 C=    0.0000
 XYZ=   -5.8384   -5.0637   -9.0698 Q=    0.4100 A=    0.0000 R=    0.0000 C=    0.0000
 XYZ=    6.4919    3.3350   -7.2816 Q=   -0.8200 A=    0.0000 R=    0.0000 C=    0.0000
 XYZ=    7.1963    4.0445   -7.2592 Q=    0.4100 A=    0.0000 R=    0.0000 C=    0.0000
 XYZ=    6.8700    2.5027   -7.6871 Q=    0.4100 A=    0.0000 R=    0.0000 C=    0.0000
 XYZ=    7.9698   -1.0572   -7.2446 Q=   -0.8200 A=    0.0000 R=    0.0000 C=    0.0000
 XYZ=    8.3369   -0.1333   -7.1361 Q=    0.4100 A=    0.0000 R=    0.0000 C=    0.0000
 XYZ=    8.6991   -1.7251   -7.0967 Q=    0.4100 A=    0.0000 R=    0.0000 C=    0.0000
 XYZ=   -6.7380    9.1991    4.6686 Q=   -0.8200 A=    0.0000 R=    0.0000 C=    0.0000
 XYZ=   -5.7840    9.4892    4.7442 Q=    0.4100 A=    0.0000 R=    0.0000 C=    0.0000
 XYZ=   -7.2867    9.9503    4.3016 Q=    0.4100 A=    0.0000 R=    0.0000 C=    0.0000
 XYZ=   -8.5242    2.8330   -7.6699 Q=   -0.8200 A=    0.0000 R=    0.0000 C=    0.0000
 XYZ=   -8.2048    2.3476   -8.4839 Q=    0.4100 A=    0.0000 R=    0.0000 C=    0.0000
 XYZ=   -8.7517    2.1715   -6.9552 Q=    0.4100 A=    0.0000 R=    0.0000 C=    0.0000
 XYZ=    8.6193   -8.3971   -0.2568 Q=   -0.8200 A=    0.0000 R=    0.0000 C=    0.0000
 XYZ=    9.2730   -7.6445   -0.1779 Q=    0.4100 A=    0.0000 R=    0.0000 C=    0.0000
 XYZ=    7.7037   -8.0691   -0.0243 Q=    0.4100 A=    0.0000 R=    0.0000 C=    0.0000
 XYZ=    6.7596    9.0031    2.8976 Q=   -0.8200 A=    0.0000 R=    0.0000 C=    0.0000
 XYZ=    5.9867    8.5717    3.3632 Q=    0.4100 A=    0.0000 R=    0.0000 C=    0.0000
 XYZ=    6.4189    9.6589    2.2239 Q=    0.4100 A=    0.0000 R=    0.0000 C=    0.0000
 XYZ=    3.4395    5.8845   10.6351 Q=   -0.8200 A=    0.0000 R=    0.0000 C=    0.0000
 XYZ=    2.5540    6.3441   10.5662 Q=    0.4100 A=    0.0000 R=    0.0000 C=    0.0000
 XYZ=    3.6877    5.5040    9.7442 Q=    0.4100 A=    0.0000 R=    0.0000 C=    0.0000
 XYZ=    8.9504    3.3072   -4.3299 Q=   -0.8200 A=    0.0000 R=    0.0000 C=    0.0000
 XYZ=    9.4516    2.7104   -3.7033 Q=    0.4100 A=    0.0000 R=    0.0000 C=    0.0000
 XYZ=    8.8005    4.1955   -3.8958 Q=    0.4100 A=    0.0000 R=    0.0000 C=    0.0000
 XYZ=   10.8434   -2.9409   -2.2277 Q=   -0.8200 A=    0.0000 R=    0.0000 C=    0.0000
 XYZ=   11.2221   -3.7976   -1.8777 Q=    0.4100 A=    0.0000 R=    0.0000 C=    0.0000
 XYZ=   10.6728   -2.3160   -1.4659 Q=    0.4100 A=    0.0000 R=    0.0000 C=    0.0000
 XYZ=    0.1470    9.5133    9.1343 Q=   -0.8200 A=    0.0000 R=    0.0000 C=    0.0000
 XYZ=   -0.4107   10.1567    8.6098 Q=    0.4100 A=    0.0000 R=    0.0000 C=    0.0000
 XYZ=    0.5561    8.8441    8.5139 Q=    0.4100 A=    0.0000 R=    0.0000 C=    0.0000
 XYZ=   -4.5454   -3.1592   10.6752 Q=   -0.8200 A=    0.0000 R=    0.0000 C=    0.0000
 XYZ=   -4.6074   -2.3268   10.1245 Q=    0.4100 A=    0.0000 R=    0.0000 C=    0.0000
 XYZ=   -4.6457   -2.9269   11.6427 Q=    0.4100 A=    0.0000 R=    0.0000 C=    0.0000
 XYZ=    8.9531   -6.3134   -2.8350 Q=   -0.8200 A=    0.0000 R=    0.0000 C=    0.0000
 XYZ=    9.9156   -6.5233   -3.0072 Q=    0.4100 A=    0.0000 R=    0.0000 C=    0.0000
 XYZ=    8.3830   -6.7921   -3.5028 Q=    0.4100 A=    0.0000 R=    0.0000 C=    0.0000
 XYZ=   -7.3717    4.0132    9.4980 Q=   -0.8200 A=    0.0000 R=    0.0000 C=    0.0000
 XYZ=   -6.3957    4.1614    9.6576 Q=    0.4100 A=    0.0000 R=    0.0000 C=    0.0000
 XYZ=   -7.5307    3.0511    9.2763 Q=    0.4100 A=    0.0000 R=    0.0000 C=    0.0000
 XYZ=   10.2899    3.5350    3.3425 Q=   -0.8200 A=    0.0000 R=    0.0000 C=    0.0000
 XYZ=   10.2168    2.5466    3.2091 Q=    0.4100 A=    0.0000 R=    0.0000 C=    0.0000
 XYZ=   10.2912    3.7400    4.3213 Q=    0.4100 A=    0.0000 R=    0.0000 C=    0.0000
 XYZ=   -4.5972   10.3396    4.8018 Q=   -0.8200 A=    0.0000 R=    0.0000 C=    0.0000
 XYZ=   -4.6582   10.8859    5.6372 Q=    0.4100 A=    0.0000 R=    0.0000 C=    0.0000
 XYZ=   -4.7120   10.9340    4.0059 Q=    0.4100 A=    0.0000 R=    0.0000 C=    0.0000
 XYZ=    6.8513    1.3100    9.3900 Q=   -0.8200 A=    0.0000 R=    0.0000 C=    0.0000
 XYZ=    6.1563    1.8852    9.8215 Q=    0.4100 A=    0.0000 R=    0.0000 C=    0.0000
 XYZ=    6.7764    0.3767    9.7410 Q=    0.4100 A=    0.0000 R=    0.0000 C=    0.0000
 XYZ=  -11.4909    1.4344    3.5552 Q=   -0.8200 A=    0.0000 R=    0.0000 C=    0.0000
 XYZ=  -12.4032    1.7731    3.3248 Q=    0.4100 A=    0.0000 R=    0.0000 C=    0.0000
 XYZ=  -10.8189    2.1602    3.4079 Q=    0.4100 A=    0.0000 R=    0.0000 C=    0.0000
 XYZ=   -2.6216   -4.3830   10.4319 Q=   -0.8200 A=    0.0000 R=    0.0000 C=    0.0000
 XYZ=   -1.8625   -3.7320   10.4312 Q=    0.4100 A=    0.0000 R=    0.0000 C=    0.0000
 XYZ=   -3.4851   -3.8881   10.5290 Q=    0.4100 A=    0.0000 R=    0.0000 C=    0.0000
 XYZ=   -7.2573    8.9131   -3.1075 Q=   -0.8200 A=    0.0000 R=    0.0000 C=    0.0000
 XYZ=   -7.9469    9.0596   -3.8167 Q=    0.4100 A=    0.0000 R=    0.0000 C=    0.0000
 XYZ=   -6.4511    9.4705   -3.3061 Q=    0.4100 A=    0.0000 R=    0.0000 C=    0.0000
 XYZ=    9.2772   -0.6249    6.9254 Q=   -0.8200 A=    0.0000 R=    0.0000 C=    0.0000
 XYZ=    9.6350   -0.7136    7.8550 Q=    0.4100 A=    0.0000 R=    0.0000 C=    0.0000
 XYZ=    9.3233    0.3326    6.6405 Q=    0.4100 A=    0.0000 R=    0.0000 C=    0.0000
 XYZ=    8.5206    5.4815   -3.4326 Q=   -0.8200 A=    0.0000 R=    0.0000 C=    0.0000
 XYZ=    7.6780    5.5765   -3.9627 Q=    0.4100 A=    0.0000 R=    0.0000 C=    0.0000
 XYZ=    8.3364    5.6944   -2.4730 Q=    0.4100 A=    0.0000 R=    0.0000 C=    0.0000
 XYZ=    9.2115   -3.0160   -7.0415 Q=   -0.8200 A=    0.0000 R=    0.0000 C=    0.0000
 XYZ=   10.0761   -2.8238   -6.5772 Q=    0.4100 A=    0.0000 R=    0.0000 C=    0.0000
 XYZ=    8.6233   -3.5567   -6.4401 Q=    0.4100 A=    0.0000 R=    0.0000 C=    0.0000
 XYZ=    6.9903   -8.6719   -2.8977 Q=   -0.8200 A=    0.0000 R=    0.0000 C=    0.0000
 XYZ=    7.6750   -9.2951   -2.5198 Q=    0.4100 A=    0.0000 R=    0.0000 C=    0.0000
 XYZ=    7.3925   -8.1523   -3.6516 Q=    0.4100 A=    0.0000 R=    0.0000 C=    0.0000
 XYZ=   -8.1682    5.3132    7.6315 Q=   -0.8200 A=    0.0000 R=    0.0000 C=    0.0000
 XYZ=   -7.8277    4.8464    8.4477 Q=    0.4100 A=    0.0000 R=    0.0000 C=    0.0000
 XYZ=   -9.0297    4.8951    7.3434 Q=    0.4100 A=    0.0000 R=    0.0000 C=    0.0000
 XYZ=   -1.7377   -5.9767    9.0852 Q=   -0.8200 A=    0.0000 R=    0.0000 C=    0.0000
 XYZ=   -1.8121   -6.8502    9.5664 Q=    0.4100 A=    0.0000 R=    0.0000 C=    0.0000
 XYZ=   -2.1736   -5.2590    9.6282 Q=    0.4100 A=    0.0000 R=    0.0000 C=    0.0000
 XYZ=  -11.6416   -3.6243   -0.5251 Q=   -0.8200 A=    0.0000 R=    0.0000 C=    0.0000
 XYZ=  -10.8172   -3.0691   -0.6349 Q=    0.4100 A=    0.0000 R=    0.0000 C=    0.0000
 XYZ=  -11.4234   -4.4439    0.0047 Q=    0.4100 A=    0.0000 R=    0.0000 C=    0.0000
 XYZ=    1.2677   -4.9759   11.3445 Q=   -0.8200 A=    0.0000 R=    0.0000 C=    0.0000
 XYZ=    0.3863   -4.8301   11.7939 Q=    0.4100 A=    0.0000 R=    0.0000 C=    0.0000
 XYZ=    1.2296   -4.6173   10.4117 Q=    0.4100 A=    0.0000 R=    0.0000 C=    0.0000
 XYZ=   -2.3428    7.3684   10.7638 Q=   -0.8200 A=    0.0000 R=    0.0000 C=    0.0000
 XYZ=   -2.4536    7.7154    9.8324 Q=    0.4100 A=    0.0000 R=    0.0000 C=    0.0000
 XYZ=   -3.1136    7.6694   11.3254 Q=    0.4100 A=    0.0000 R=    0.0000 C=    0.0000
 XYZ=   11.8063    0.1345   -1.1767 Q=   -0.8200 A=    0.0000 R=    0.0000 C=    0.0000
 XYZ=   11.1224   -0.5337   -0.8836 Q=    0.4100 A=    0.0000 R=    0.0000 C=    0.0000
 XYZ=   11.4455    1.0584   -1.0491 Q=    0.4100 A=    0.0000 R=    0.0000 C=    0.0000
 XYZ=    7.3607    4.6078    8.0618 Q=   -0.8200 A=    0.0000 R=    0.0000 C=    0.0000
 XYZ=    7.8052    3.7225    8.1985 Q=    0.4100 A=    0.0000 R=    0.0000 C=    0.0000
 XYZ=    8.0568    5.3127    7.9258 Q=    0.4100 A=    0.0000 R=    0.0000 C=    0.0000
 XYZ=    9.4581    1.9670    6.5691 Q=   -0.8200 A=    0.0000 R=    0.0000 C=    0.0000
 XYZ=    9.9424    2.7571    6.1931 Q=    0.4100 A=    0.0000 R=    0.0000 C=    0.0000
 XYZ=    9.0366    2.2182    7.4404 Q=    0.4100 A=    0.0000 R=    0.0000 C=    0.0000
 XYZ=   -2.0648    0.7222  -12.8464 Q=   -0.8200 A=    0.0000 R=    0.0000 C=    0.0000
 XYZ=   -1.8417    0.7651  -11.8726 Q=    0.4100 A=    0.0000 R=    0.0000 C=    0.0000
 XYZ=   -1.8417   -0.1863  -13.1998 Q=    0.4100 A=    0.0000 R=    0.0000 C=    0.0000
 XYZ=   -3.8492   -8.9484   -7.8510 Q=   -0.8200 A=    0.0000 R=    0.0000 C=    0.0000
 XYZ=   -4.2112   -8.0186   -7.7833 Q=    0.4100 A=    0.0000 R=    0.0000 C=    0.0000
 XYZ=   -4.0387   -9.4425   -7.0025 Q=    0.4100 A=    0.0000 R=    0.0000 C=    0.0000
 XYZ=   -2.3718    4.4187  -10.5938 Q=   -0.8200 A=    0.0000 R=    0.0000 C=    0.0000
 XYZ=   -2.0246    5.0499  -11.2873 Q=    0.4100 A=    0.0000 R=    0.0000 C=    0.0000
 XYZ=   -3.3716    4.4192  -10.6133 Q=    0.4100 A=    0.0000 R=    0.0000 C=    0.0000
 XYZ=    3.7525   10.3650   -1.6415 Q=   -0.8200 A=    0.0000 R=    0.0000 C=    0.0000
 XYZ=    3.8066   10.4646   -0.6479 Q=    0.4100 A=    0.0000 R=    0.0000 C=    0.0000
 XYZ=    4.5951    9.9468   -1.9808 Q=    0.4100 A=    0.0000 R=    0.0000 C=    0.0000
 XYZ=   -7.8227    2.0201   -9.7574 Q=   -0.8200 A=    0.0000 R=    0.0000 C=    0.0000
 XYZ=   -7.9549    2.8282  -10.3316 Q=    0.4100 A=    0.0000 R=    0.0000 C=    0.0000
 XYZ=   -6.8475    1.8991   -9.5718 Q=    0.4100 A=    0.0000 R=    0.0000 C=    0.0000
 XYZ=    2.6861   -0.3682  -11.6216 Q=   -0.8200 A=    0.0000 R=    0.0000 C=    0.0000
 XYZ=    2.3778    0.3533  -12.2417 Q=    0.4100 A=    0.0000 R=    0.0000 C=    0.0000
 XYZ=    2.1883   -1.2127  -11.8193 Q=    0.4100 A=    0.0000 R=    0.0000 C=    0.0000
 XYZ=   -2.5124  -10.7318   -0.9311 Q=   -0.8200 A=    0.0000 R=    0.0000 C=    0.0000
 XYZ=   -3.4150  -10.5877   -1.3370 Q=    0.4100 A=    0.0000 R=    0.0000 C=    0.0000
 XYZ=   -2.0564  -11.4921   -1.3938 Q=    0.4100 A=    0.0000 R=    0.0000 C=    0.0000
 XYZ=    7.2234   -1.7494   -9.4683 Q=   -0.8200 A=    0.0000 R=    0.0000 C=    0.0000
 XYZ=    7.4459   -1.4943   -8.5273 Q=    0.4100 A=    0.0000 R=    0.0000 C=    0.0000
 XYZ=    6.3453   -2.2275   -9.4853 Q=    0.4100 A=    0.0000 R=    0.0000 C=    0.0000
 XYZ=   -4.6745  -10.1182   -5.8747 Q=   -0.8200 A=    0.0000 R=    0.0000 C=    0.0000
 XYZ=   -4.8745   -9.2566   -5.4081 Q=    0.4100 A=    0.0000 R=    0.0000 C=    0.0000
 XYZ=   -5.5145  -10.6542   -5.9591 Q=    0.4100 A=    0.0000 R=    0.0000 C=    0.0000
 XYZ=   10.1928    4.0230    5.5595 Q=   -0.8200 A=    0.0000 R=    0.0000 C=    0.0000
 XYZ=    9.3680    4.5642    5.3952 Q=    0.4100 A=    0.0000 R=    0.0000 C=    0.0000
 XYZ=   10.7664    4.4864    6.2350 Q=    0.4100 A=    0.0000 R=    0.0000 C=    0.0000
 XYZ=    8.5074    2.6805    8.6022 Q=   -0.8200 A=    0.0000 R=    0.0000 C=    0.0000
 XYZ=    9.0914    3.0090    9.3445 Q=    0.4100 A=    0.0000 R=    0.0000 C=    0.0000
 XYZ=    7.8006    2.0794    8.9753 Q=    0.4100 A=    0.0000 R=    0.0000 C=    0.0000
 XYZ=    9.0441    7.6524    1.9830 Q=   -0.8200 A=    0.0000 R=    0.0000 C=    0.0000
 XYZ=    8.9114    6.6715    2.1250 Q=    0.4100 A=    0.0000 R=    0.0000 C=    0.0000
 XYZ=    8.2790    8.1542    2.3867 Q=    0.4100 A=    0.0000 R=    0.0000 C=    0.0000
 XYZ=   -1.1687   -0.1731   13.1632 Q=   -0.8200 A=    0.0000 R=    0.0000 C=    0.0000
 XYZ=   -2.1193    0.0939   13.3216 Q=    0.4100 A=    0.0000 R=    0.0000 C=    0.0000
 XYZ=   -0.9922   -0.2097   12.1796 Q=    0.4100 A=    0.0000 R=    0.0000 C=    0.0000
 XYZ=    1.4374   -2.3519  -12.1545 Q=   -0.8200 A=    0.0000 R=    0.0000 C=    0.0000
 XYZ=    2.1723   -3.0281  -12.2080 Q=    0.4100 A=    0.0000 R=    0.0000 C=    0.0000
 XYZ=    0.5804   -2.8093  -11.9168 Q=    0.4100 A=    0.0000 R=    0.0000 C=    0.0000
 XYZ=   11.0668   -2.6450   -5.5407 Q=   -0.8200 A=    0.0000 R=    0.0000 C=    0.0000
 XYZ=   10.2490   -2.5080   -4.9817 Q=    0.4100 A=    0.0000 R=    0.0000 C=    0.0000
 XYZ=   11.8723   -2.6836   -4.9493 Q=    0.4100 A=    0.0000 R=    0.0000 C=    0.0000
 XYZ=   -5.3309   10.3304   -3.5356 Q=   -0.8200 A=    0.0000 R=    0.0000 C=    0.0000
 XYZ=   -5.1090   11.2200   -3.1363 Q=    0.4100 A=    0.0000 R=    0.0000 C=    0.0000
 XYZ=   -5.3209   10.4011   -4.5331 Q=    0.4100 A=    0.0000 R=    0.0000 C=    0.0000
[...]
    39  O    0.000000   0.000000   0.000003   0.000000   0.000000  -0.003450
    40  H    0.000000   0.000000   0.000000   0.000000   0.000000  -0.000034
    41  H    0.000000   0.000000   0.000000   0.000000   0.000000  -0.000379
    42  O    0.000000   0.000000   0.000008   0.000000   0.000000  -0.000021
    43  H    0.000000   0.000000   0.000000   0.000000   0.000000   0.000004
    44  H    0.000000   0.000000   0.000000   0.000000   0.000000   0.000013
    45  O   -0.000085  -0.000004   0.003083   0.003155  -0.000109   0.000000
    46  H    0.000000   0.000003  -0.000240  -0.000100   0.000003   0.000000
    47  H    0.000034  -0.000401  -0.000406  -0.000188   0.000008   0.000000
    48  O    0.000000   0.000000  -0.091026   0.003079   0.000235   0.000000
    49  H    0.000000   0.000000   0.025339  -0.001124  -0.000541   0.000000
    50  H    0.000000   0.000000   0.002229  -0.000007   0.000013   0.000000
              31         32         33         34         35         36
     1  C   -0.000066  -0.000003   0.013508   0.008550  -0.002202   0.001445
     2  H    0.000000   0.000000  -0.000002   0.000000   0.000000  -0.000033
     3  H    0.000000   0.000000   0.000001   0.000000   0.000000   0.000000
     4  C   -0.001424  -0.000160  -0.026043  -0.002137  -0.005211  -0.004102
     5  H    0.000000   0.000000  -0.000152   0.000051   0.000004   0.000004
     6  C    0.002131   0.000297   0.016851  -0.001645   0.006525   0.012264
     7  H   -0.000008   0.000000  -0.002539  -0.000203   0.000017   0.000287
     8  O    0.000340  -0.000009  -0.000891  -0.000062  -0.000297  -0.007346
     9  O    0.011115   0.002788  -0.004756  -0.000088   0.000735  -0.121553
    10  H   -0.001254   0.000053   0.000216  -0.000012  -0.000016  -0.000319
    11  H    0.001193  -0.000192   0.000105   0.000001   0.000020   0.064231
    12  O    0.000000   0.000000  -0.000006  -0.000013   0.000000   0.000000
    13  H    0.000000   0.000000  -0.000001   0.000001   0.000000   0.000000
    14  H    0.000000   0.000000  -0.000003   0.000000   0.000000   0.000000
    15  O    0.000001   0.000000   0.000000   0.000000   0.000000  -0.000081
    16  H    0.000000   0.000000   0.000000   0.000000   0.000000   0.000000
    17  H    0.000002   0.000000   0.000000   0.000000   0.000000  -0.000044
    18  O    0.000000   0.000000   0.000015   0.000003   0.000000   0.000000
    19  H    0.000000   0.000000   0.000000   0.000000   0.000000   0.000000
    20  H    0.000000   0.000000   0.000000   0.000000   0.000000   0.000000
    21  O    0.000000   0.000000  -0.000549  -0.000087   0.000010   0.000000
    22  H    0.000000   0.000000   0.000000   0.000000   0.000000   0.000000
    23  H    0.000000   0.000000   0.000021   0.000000   0.000000   0.000000
    24  O    0.000000   0.000000  -0.000001   0.000000   0.000000   0.000000
    25  H    0.000000   0.000000   0.000000   0.000000   0.000000   0.000000
    26  H    0.000000   0.000000   0.000000   0.000000   0.000000   0.000000
    27  O    0.000000   0.000000   0.000000   0.000000   0.000000   0.000013
    28  H    0.000000   0.000000   0.000000   0.000000   0.000000   0.000000
    29  H    0.000000   0.000000   0.000000   0.000000   0.000000   0.000000
    30  O    0.173059   0.204030   0.000065   0.000001   0.000022  -0.005186
    31  H    0.244382  -0.007144   0.000020   0.000001   0.000001   0.000882
    32  H   -0.007144   0.169552  -0.000002   0.000000   0.000000  -0.000410
    33  O    0.000020  -0.000002   8.906030   0.217106   0.164309   0.000082
    34  H    0.000001   0.000000   0.217106   0.292699  -0.014671  -0.000005
    35  H    0.000001   0.000000   0.164309  -0.014671   0.190931   0.000056
    36  O    0.000882  -0.000410   0.000082  -0.000005   0.000056   8.910028
    37  H    0.000001   0.000001   0.000000   0.000000   0.000000   0.205069
    38  H   -0.000070   0.000017   0.000000   0.000000   0.000000   0.186297
    39  O   -0.000203   0.000107  -0.121583   0.006246   0.032970  -0.004529
    40  H   -0.000031  -0.000008  -0.000747   0.000072  -0.000727  -0.000112
    41  H    0.000700  -0.000098   0.001772  -0.000576   0.001364   0.007624
    42  O   -0.000008   0.000000  -0.000576   0.000031  -0.000514   0.003706
    43  H    0.000000   0.000000   0.000045   0.000000   0.000005   0.000388
    44  H    0.000001   0.000000  -0.001183   0.000003  -0.000081  -0.000205
    45  O    0.000000   0.000000   0.000000   0.000000   0.000000   0.000000
    46  H    0.000000   0.000000   0.000000   0.000000   0.000000   0.000000
    47  H    0.000000   0.000000   0.000000   0.000000   0.000000   0.000000
    48  O    0.000000   0.000000   0.000000   0.000000   0.000000  -0.000001
    49  H    0.000000   0.000000   0.000000   0.000000   0.000000  -0.000002
    50  H    0.000000   0.000000   0.000000   0.000000   0.000000   0.000000
              37         38         39         40         41         42
     1  C   -0.000124   0.000190   0.011080  -0.000028  -0.000682   0.000910
     2  H    0.000000   0.000000   0.000000   0.000000   0.000000   0.000001
     3  H    0.000000   0.000000   0.000000   0.000000   0.000000   0.000000
     4  C    0.000046   0.000103   0.007635  -0.000670  -0.007480   0.003436
     5  H    0.000000   0.000000  -0.000036   0.000000   0.000005   0.000001
     6  C    0.000531  -0.000451  -0.019141   0.001756   0.009141   0.006369
     7  H    0.000001   0.000000   0.002831   0.000032   0.001183   0.000024
     8  O    0.000711  -0.001632  -0.011232   0.000150  -0.000853  -0.001232
     9  O    0.002583   0.004750  -0.005131  -0.002039   0.061506  -0.001500
    10  H   -0.000080  -0.000295   0.002290   0.000037   0.000682   0.000035
    11  H    0.000364  -0.003929  -0.001951   0.000159  -0.000546  -0.000612
    12  O    0.000000   0.000000  -0.000012   0.000000   0.000001   0.000001
    13  H    0.000000   0.000000   0.000001   0.000000   0.000000   0.000000
    14  H    0.000000   0.000000   0.000003   0.000000   0.000000   0.000000
    15  O    0.000002   0.000011  -0.000001   0.000000   0.000000   0.000001
    16  H    0.000000   0.000000   0.000000   0.000000   0.000000   0.000000
    17  H    0.000000   0.000001  -0.000002   0.000000   0.000000   0.000000
    18  O    0.000000   0.000000   0.000003   0.000000   0.000000   0.000000
    19  H    0.000000   0.000000   0.000000   0.000000   0.000000   0.000000
    20  H    0.000000   0.000000   0.000000   0.000000   0.000000   0.000000
    21  O    0.000000   0.000000  -0.000022   0.000000   0.000001   0.000000
    22  H    0.000000   0.000000   0.000000   0.000000   0.000000   0.000000
    23  H    0.000000   0.000000   0.000000   0.000000   0.000000   0.000000
    24  O    0.000000   0.000000   0.000000   0.000000   0.000000   0.000000
    25  H    0.000000   0.000000   0.000000   0.000000   0.000000   0.000000
    26  H    0.000000   0.000000   0.000000   0.000000   0.000000   0.000000
    27  O   -0.000002   0.000000   0.000003   0.000000   0.000000   0.000008
    28  H    0.000000   0.000000   0.000000   0.000000   0.000000   0.000000
    29  H    0.000000   0.000000   0.000000   0.000000   0.000000   0.000000
    30  O   -0.000028  -0.000140  -0.003450  -0.000034  -0.000379  -0.000021
    31  H    0.000001  -0.000070  -0.000203  -0.000031   0.000700  -0.000008
    32  H    0.000001   0.000017   0.000107  -0.000008  -0.000098   0.000000
    33  O    0.000000   0.000000  -0.121583  -0.000747   0.001772  -0.000576
    34  H    0.000000   0.000000   0.006246   0.000072  -0.000576   0.000031
    35  H    0.000000   0.000000   0.032970  -0.000727   0.001364  -0.000514
    36  O    0.205069   0.186297  -0.004529  -0.000112   0.007624   0.003706
    37  H    0.158326  -0.007086   0.000094  -0.000006  -0.000141  -0.002260
    38  H   -0.007086   0.156340   0.000017  -0.000002  -0.000098   0.000245
    39  O    0.000094   0.000017   9.064573   0.195020   0.098859   0.000887
    40  H   -0.000006  -0.000002   0.195020   0.157156  -0.002038  -0.001198
    41  H   -0.000141  -0.000098   0.098859  -0.002038   0.189437  -0.001472
    42  O   -0.002260   0.000245   0.000887  -0.001198  -0.001472   8.609420
    43  H    0.000076   0.000006   0.000646  -0.000021   0.000012   0.230316
    44  H    0.000073   0.000004   0.014957  -0.000710  -0.000918   0.218762
    45  O    0.000000   0.000000   0.000000   0.000000   0.000000   0.000000
    46  H    0.000000   0.000000   0.000000   0.000000   0.000000   0.000000
    47  H    0.000000   0.000000   0.000000   0.000000   0.000000   0.000000
    48  O    0.000000   0.000000   0.000000   0.000000   0.000000  -0.000005
    49  H    0.000000   0.000000   0.000000   0.000000   0.000000  -0.000001
    50  H    0.000000   0.000000   0.000000   0.000000   0.000000  -0.000001
              43         44         45         46         47         48
     1  C   -0.000019   0.000107   0.004364  -0.000115  -0.000083   0.000868
     2  H    0.000000   0.000000  -0.000004   0.000000   0.000000   0.000004
     3  H    0.000000   0.000000   0.000037   0.000000   0.000007   0.000000
     4  C   -0.000423   0.001721  -0.014421   0.000723  -0.001331   0.000213
     5  H    0.000000   0.000000   0.000063   0.000000   0.000032   0.000000
     6  C   -0.000839  -0.000556   0.004370  -0.000351  -0.000661  -0.001875
     7  H    0.000003  -0.000046   0.000000   0.000000  -0.000001   0.000000
     8  O    0.000031   0.000656   0.000023   0.000000  -0.000004  -0.000240
     9  O    0.000093  -0.000147   0.000000   0.000000   0.000000  -0.000005
    10  H    0.000000  -0.000019   0.000000   0.000000   0.000000   0.000000
    11  H    0.000004   0.000101   0.000000   0.000000   0.000000   0.000000
    12  O    0.000000   0.000000  -0.016925  -0.002562   0.003706   0.000018
    13  H    0.000000   0.000000  -0.001627  -0.000040   0.002245   0.000000
    14  H    0.000000   0.000000  -0.001319  -0.000016  -0.000432   0.000017
    15  O    0.000000   0.000000   0.000002   0.000000   0.000000  -0.000003
    16  H    0.000000   0.000000   0.000000   0.000000   0.000000   0.000000
    17  H    0.000000   0.000000   0.000000   0.000000   0.000000   0.000000
    18  O    0.000000   0.000000  -0.005408   0.000096   0.001917   0.000000
    19  H    0.000000   0.000000   0.000136  -0.000001  -0.000019   0.000000
    20  H    0.000000   0.000000   0.000748  -0.000032   0.001258  -0.000001
    21  O    0.000000   0.000000  -0.001919  -0.000052  -0.000879   0.000000
    22  H    0.000000   0.000000   0.000021   0.000000   0.000000   0.000000
    23  H    0.000000   0.000000   0.000024   0.000001   0.000008   0.000000
    24  O    0.000000   0.000000  -0.003552   0.000050   0.000509  -0.000002
    25  H    0.000000   0.000000  -0.000085   0.000000   0.000034   0.000000
    26  H    0.000000   0.000000  -0.000004   0.000003  -0.000401   0.000000
    27  O    0.000000   0.000000   0.003083  -0.000240  -0.000406  -0.091026
    28  H    0.000000   0.000000   0.003155  -0.000100  -0.000188   0.003079
    29  H    0.000000   0.000000  -0.000109   0.000003   0.000008   0.000235
    30  O    0.000004   0.000013   0.000000   0.000000   0.000000   0.000000
    31  H    0.000000   0.000001   0.000000   0.000000   0.000000   0.000000
    32  H    0.000000   0.000000   0.000000   0.000000   0.000000   0.000000
    33  O    0.000045  -0.001183   0.000000   0.000000   0.000000   0.000000
    34  H    0.000000   0.000003   0.000000   0.000000   0.000000   0.000000
    35  H    0.000005  -0.000081   0.000000   0.000000   0.000000   0.000000
    36  O    0.000388  -0.000205   0.000000   0.000000   0.000000  -0.000001
    37  H    0.000076   0.000073   0.000000   0.000000   0.000000   0.000000
    38  H    0.000006   0.000004   0.000000   0.000000   0.000000   0.000000
    39  O    0.000646   0.014957   0.000000   0.000000   0.000000   0.000000
    40  H   -0.000021  -0.000710   0.000000   0.000000   0.000000   0.000000
    41  H    0.000012  -0.000918   0.000000   0.000000   0.000000   0.000000
    42  O    0.230316   0.218762   0.000000   0.000000   0.000000  -0.000005
    43  H    0.221437  -0.011293   0.000000   0.000000   0.000000   0.000000
    44  H   -0.011293   0.232801   0.000000   0.000000   0.000000   0.000000
    45  O    0.000000   0.000000   8.910153   0.200668   0.146489   0.000053
    46  H    0.000000   0.000000   0.200668   0.186061  -0.002965   0.000000
    47  H    0.000000   0.000000   0.146489  -0.002965   0.223623  -0.000004
    48  O    0.000000   0.000000   0.000053   0.000000  -0.000004   8.977839
    49  H    0.000000   0.000000   0.000013   0.000000  -0.000003   0.146708
    50  H    0.000000   0.000000   0.000001   0.000000   0.000000   0.196109
              49         50
     1  C    0.000173   0.000021
     2  H   -0.000001   0.000000
     3  H    0.000000   0.000000
     4  C    0.000740   0.000037
     5  H    0.000000   0.000000
     6  C   -0.000203   0.000162
     7  H    0.000000   0.000000
     8  O   -0.000178  -0.000011
     9  O    0.000001   0.000000
    10  H    0.000000   0.000000
    11  H    0.000000   0.000000
    12  O    0.000032   0.000000
    13  H    0.000000   0.000000
    14  H   -0.000002   0.000000
    15  O    0.000001   0.000000
    16  H    0.000000   0.000000
    17  H    0.000000   0.000000
    18  O    0.000000   0.000000
    19  H    0.000000   0.000000
    20  H    0.000000   0.000000
    21  O    0.000000   0.000000
    22  H    0.000000   0.000000
    23  H    0.000000   0.000000
    24  O   -0.000003   0.000000
    25  H    0.000000   0.000000
    26  H    0.000000   0.000000
    27  O    0.025339   0.002229
    28  H   -0.001124  -0.000007
    29  H   -0.000541   0.000013
    30  O    0.000000   0.000000
    31  H    0.000000   0.000000
    32  H    0.000000   0.000000
    33  O    0.000000   0.000000
    34  H    0.000000   0.000000
    35  H    0.000000   0.000000
    36  O   -0.000002   0.000000
    37  H    0.000000   0.000000
    38  H    0.000000   0.000000
    39  O    0.000000   0.000000
    40  H    0.000000   0.000000
    41  H    0.000000   0.000000
    42  O   -0.000001  -0.000001
    43  H    0.000000   0.000000
    44  H    0.000000   0.000000
    45  O    0.000013   0.000001
    46  H    0.000000   0.000000
    47  H   -0.000003   0.000000
    48  O    0.146708   0.196109
    49  H    0.247759  -0.003905
    50  H   -0.003905   0.195064
 Mulliken charges:
               1
     1  C   -0.518647
     2  H    0.150346
     3  H    0.278603
     4  C   -0.028151
     5  H    0.244392
     6  C   -0.089252
     7  H    0.212660
     8  O   -0.415680
     9  O   -1.180586
    10  H    0.525187
    11  H    0.611533
    12  O   -1.290486
    13  H    0.608551
    14  H    0.583897
    15  O   -1.014758
    16  H    0.607440
    17  H    0.465560
    18  O   -1.279760
    19  H    0.632948
    20  H    0.678353
    21  O   -1.237743
    22  H    0.646030
    23  H    0.648114
    24  O   -1.101635
    25  H    0.580061
    26  H    0.552355
    27  O   -1.162473
    28  H    0.573251
    29  H    0.648560
    30  O   -1.204410
    31  H    0.576381
    32  H    0.631181
    33  O   -1.161110
    34  H    0.494734
    35  H    0.626750
    36  O   -1.248447
    37  H    0.641849
    38  H    0.665723
    39  O   -1.270932
    40  H    0.653989
    41  H    0.642996
    42  O   -1.064750
    43  H    0.559531
    44  H    0.545960
    45  O   -1.228031
    46  H    0.618870
    47  H    0.627543
    48  O   -1.231984
    49  H    0.585197
    50  H    0.610288
 Sum of Mulliken charges =   0.00000
 Mulliken charges with hydrogens summed into heavy atoms:
               1
     1  C   -0.089698
     4  C    0.216241
     6  C    0.123408
     8  O   -0.415680
     9  O   -0.043866
    12  O   -0.098038
    15  O    0.058242
    18  O    0.031541
    21  O    0.056401
    24  O    0.030781
    27  O    0.059339
    30  O    0.003152
    33  O   -0.039627
    36  O    0.059126
    39  O    0.026054
    42  O    0.040741
    45  O    0.018382
    48  O   -0.036499
 Electronic spatial extent (au):  <R**2>=          10684.7508
 Charge=              0.0000 electrons
 Dipole moment (field-independent basis, Debye):
    X=              0.1445    Y=              8.8125    Z=             -1.1817  Tot=              8.8926
 Quadrupole moment (field-independent basis, Debye-Ang):
   XX=            -96.0988   YY=           -134.3095   ZZ=           -141.7752
   XY=             43.2729   XZ=             -1.4605   YZ=             -3.8851
 Traceless Quadrupole moment (field-independent basis, Debye-Ang):
   XX=             27.9624   YY=            -10.2484   ZZ=            -17.7141
   XY=             43.2729   XZ=             -1.4605   YZ=             -3.8851
 Octapole moment (field-independent basis, Debye-Ang**2):
  XXX=           -296.4862  YYY=             88.8926  ZZZ=            -33.8826  XYY=            137.6030
  XXY=            190.5372  XXZ=             62.9367  XZZ=             55.0515  YZZ=            107.5200
  YYZ=            -23.5071  XYZ=            145.4215
 Hexadecapole moment (field-independent basis, Debye-Ang**3):
 XXXX=          -6143.7330 YYYY=          -3676.1672 ZZZZ=          -2820.5911 XXXY=            129.5320
 XXXZ=             33.0785 YYYX=            881.4027 YYYZ=             22.5159 ZZZX=           -122.1057
 ZZZY=              8.3867 XXYY=          -1131.1479 XXZZ=          -1475.5294 YYZZ=          -1264.8745
 XXYZ=              3.9721 YYXZ=           -202.1564 ZZXY=            199.7605
 N-N= 1.156736035521D+03 E-N=-6.281870187587D+03  KE= 1.249100380525D+03
 Leave Link  601 at Fri Sep 14 18:19:59 2018, MaxMem=    33554432 cpu:        22.2
 (Enter /usr/local/pacerepov1/gaussian/G09D01LINDA/g09/l9999.exe)

 Test job not archived.
 1\1\GINC-RICH133-C38-20-R\SP\RLC-wPBE TD-FC\6-31+G(d)\C3H32O15\ROOT\14
 -Sep-2018\0\\#p td=(nstates=15)/6-31+g(d) lc-wpbe charge\\Acroleina in
  Water\\0,1\C,0,0.485154,0.480443,-1.430142\H,0,1.461403,0.187773,-1.0
 55732\H,0,0.429244,0.878853,-2.437062\C,0,-0.605127,0.346563,-0.658432
 \H,0,-1.591686,0.632893,-1.012412\C,0,-0.508516,-0.199107,0.712798\H,0
 ,-1.458487,-0.272107,1.272438\O,0,0.544883,-0.561317,1.236519\O,0,0.48
 4723,-2.87482,1.13171\H,0,0.824083,-2.1272,0.56081\H,0,0.924253,-2.834
 841,2.02908\O,0,-1.946787,3.393049,-0.96084\H,0,-2.903587,3.1215,-0.85
 643\H,0,-1.387587,2.90889,-0.28784\O,0,3.704213,-0.204001,-1.50756\H,0
 ,3.342163,0.643669,-1.89543\H,0,2.949663,-0.831461,-1.31532\O,0,-1.630
 377,2.73893,-3.04394\H,0,-2.479967,2.246229,-3.23237\H,0,-1.634227,3.0
 5976,-2.09681\O,0,-4.243747,2.36588,-0.63482\H,0,-4.721407,2.85499,-1.
 36465\H,0,-4.517977,2.73916,0.25146\O,0,0.714073,2.42821,-3.00475\H,0,
 0.945073,2.956039,-3.82209\H,0,-0.278837,2.32603,-2.9436\O,0,1.852763,
 3.29177,1.01142\H,0,1.423633,4.143189,0.70985\H,0,2.620423,3.07377,0.4
 087\O,0,1.600693,-4.933061,0.67391\H,0,0.935863,-4.2295,0.42282\H,0,1.
 119513,-5.77763,0.90875\O,0,-3.548437,-1.802001,1.62515\H,0,-3.353457,
 -1.661051,0.6545\H,0,-2.858477,-2.409461,2.01889\O,0,1.784003,-2.63852
 ,3.21147\H,0,2.156383,-1.852111,3.70433\H,0,2.501723,-3.05017,2.64984\
 O,0,-1.741247,-2.88668,2.39494\H,0,-1.790067,-3.780811,2.84013\H,0,-0.
 879027,-2.81036,1.89414\O,0,-0.698477,-1.327481,5.07564\H,0,-0.380577,
 -2.17763,5.49548\H,0,-0.993667,-1.509061,4.137599\O,0,-0.585697,5.4452
 8,-0.98325\H,0,-1.030347,6.06259,-0.33419\H,0,-1.021547,4.546269,-0.94
 026\O,0,2.378413,4.140409,3.22015\H,0,2.283333,3.510319,2.44943\H,0,2.
 055993,3.6958,4.05589\\Version=EM64L-G09RevD.01\State=1-A\HF=-1759.039
 5693\RMSD=6.527e-09\PG=C01 [X(C3H32O15)]\\@


 A SUCCESSFUL PURSUIT OF SCIENCE MAKES A MAN THE
 BENEFACTOR OF ALL MANKIND OF EVERY AGE.
   --  JOSEPH PRIESTLEY, "EXPERIMENTS AND
 OBSERVATIONS ON DIFFERENT KINDS OF AIR", 1774
 Job cpu time:       0 days  3 hours 49 minutes 23.8 seconds.
 File lengths (MBytes):  RWF=    792 Int=      0 D2E=      0 Chk=     96 Scr=      2
 Normal termination of Gaussian 09 at Fri Sep 14 18:20:05 2018.
