 Entering Gaussian System, Link 0=g09
 Input=Acroleina_water_15_5c.gjf
 Output=Acroleina_water_15_5c.log
 Initial command:
 /usr/local/pacerepov1/gaussian/G09D01LINDA/g09/l1.exe /nv/hp18/holiveira7/scratch/22411958/Gau-21889.inp -scrdir=/nv/hp18/holiveira7/scratch/22411958/
 Entering Link 1 = /usr/local/pacerepov1/gaussian/G09D01LINDA/g09/l1.exe PID=     21890.
  
 Copyright (c) 1988,1990,1992,1993,1995,1998,2003,2009,2013,
            Gaussian, Inc.  All Rights Reserved.
  
 This is part of the Gaussian(R) 09 program.  It is based on
 the Gaussian(R) 03 system (copyright 2003, Gaussian, Inc.),
 the Gaussian(R) 98 system (copyright 1998, Gaussian, Inc.),
 the Gaussian(R) 94 system (copyright 1995, Gaussian, Inc.),
 the Gaussian 92(TM) system (copyright 1992, Gaussian, Inc.),
 the Gaussian 90(TM) system (copyright 1990, Gaussian, Inc.),
 the Gaussian 88(TM) system (copyright 1988, Gaussian, Inc.),
 the Gaussian 86(TM) system (copyright 1986, Carnegie Mellon
 University), and the Gaussian 82(TM) system (copyright 1983,
 Carnegie Mellon University). Gaussian is a federally registered
 trademark of Gaussian, Inc.
  
 This software contains proprietary and confidential information,
 including trade secrets, belonging to Gaussian, Inc.
  
 This software is provided under written license and may be
 used, copied, transmitted, or stored only in accord with that
 written license.
  
 The following legend is applicable only to US Government
 contracts under FAR:
  
                    RESTRICTED RIGHTS LEGEND
  
 Use, reproduction and disclosure by the US Government is
 subject to restrictions as set forth in subparagraphs (a)
 and (c) of the Commercial Computer Software - Restricted
 Rights clause in FAR 52.227-19.
  
 Gaussian, Inc.
 340 Quinnipiac St., Bldg. 40, Wallingford CT 06492
  
  
 ---------------------------------------------------------------
 Warning -- This program may not be used in any manner that
 competes with the business of Gaussian, Inc. or will provide
 assistance to any competitor of Gaussian, Inc.  The licensee
 of this program is prohibited from giving any competitor of
 Gaussian, Inc. access to this program.  By using this program,
 the user acknowledges that Gaussian, Inc. is engaged in the
 business of creating and licensing software in the field of
 computational chemistry and represents and warrants to the
 licensee that it is not a competitor of Gaussian, Inc. and that
 it will not use this program in any manner prohibited above.
 ---------------------------------------------------------------
  

 Cite this work as:
 Gaussian 09, Revision D.01,
 M. J. Frisch, G. W. Trucks, H. B. Schlegel, G. E. Scuseria, 
 M. A. Robb, J. R. Cheeseman, G. Scalmani, V. Barone, B. Mennucci, 
 G. A. Petersson, H. Nakatsuji, M. Caricato, X. Li, H. P. Hratchian, 
 A. F. Izmaylov, J. Bloino, G. Zheng, J. L. Sonnenberg, M. Hada, 
 M. Ehara, K. Toyota, R. Fukuda, J. Hasegawa, M. Ishida, T. Nakajima, 
 Y. Honda, O. Kitao, H. Nakai, T. Vreven, J. A. Montgomery, Jr., 
 J. E. Peralta, F. Ogliaro, M. Bearpark, J. J. Heyd, E. Brothers, 
 K. N. Kudin, V. N. Staroverov, T. Keith, R. Kobayashi, J. Normand, 
 K. Raghavachari, A. Rendell, J. C. Burant, S. S. Iyengar, J. Tomasi, 
 M. Cossi, N. Rega, J. M. Millam, M. Klene, J. E. Knox, J. B. Cross, 
 V. Bakken, C. Adamo, J. Jaramillo, R. Gomperts, R. E. Stratmann, 
 O. Yazyev, A. J. Austin, R. Cammi, C. Pomelli, J. W. Ochterski, 
 R. L. Martin, K. Morokuma, V. G. Zakrzewski, G. A. Voth, 
 P. Salvador, J. J. Dannenberg, S. Dapprich, A. D. Daniels, 
 O. Farkas, J. B. Foresman, J. V. Ortiz, J. Cioslowski, 
 and D. J. Fox, Gaussian, Inc., Wallingford CT, 2013.
 
 ******************************************
 Gaussian 09:  EM64L-G09RevD.01 24-Apr-2013
                14-Sep-2018 
 ******************************************
 %chk=Acrolina_Din_5.chk
 %nprocshared=10
 Will use up to   10 processors via shared memory.
 -------------------------------------------
 #p td=(nstates=15)/6-31+g(d) lc-wpbe charge
 -------------------------------------------
 1/18=10,28=-2,38=1,125=101/1;
 2/12=2,17=6,18=5,40=1/2;
 3/5=1,6=6,7=11,11=9,16=1,25=1,30=1,74=-41/1,2,8,3;
 4//1;
 5/5=2,38=5/2;
 8/6=1,10=2,108=15/1;
 9/41=15,42=1,70=2/14;
 6/7=2,8=2,9=2,10=2/1;
 99/5=1,9=1/99;
 Leave Link    1 at Fri Sep 14 17:21:57 2018, MaxMem=           0 cpu:         2.7
 (Enter /usr/local/pacerepov1/gaussian/G09D01LINDA/g09/l101.exe)
 ------------------
 Acroleina in Water
 ------------------
 Symbolic Z-matrix:
 Charge =  0 Multiplicity = 1
 C                     0.48515   0.48044  -1.43014 
 H                     1.4614    0.18777  -1.05573 
 H                     0.42924   0.87885  -2.43706 
 C                    -0.60513   0.34656  -0.65843 
 H                    -1.59169   0.63289  -1.01241 
 C                    -0.50852  -0.19911   0.7128 
 H                    -1.45849  -0.27211   1.27244 
 O                     0.54488  -0.56132   1.23652 
 O                    -0.39689  -0.47765   3.32707 
 H                     0.01244   0.00938   2.55552 
 H                     0.07774  -0.22507   4.17027 
 O                     3.22183   2.37641   0.96999 
 H                     2.85069   3.26856   0.71228 
 H                     2.48955   1.80539   1.3411 
 O                     0.8856   -2.5609    2.90026 
 H                     0.24305  -1.79572   2.85946 
 H                     0.38333  -3.42227   2.82419 
 O                    -2.72837  -0.84701   3.90924 
 H                    -2.50506  -1.42715   4.69258 
 H                    -1.88405  -0.54747   3.46491 
 O                     2.47195   4.45538   0.32123 
 H                     2.98506   4.95849  -0.37419 
 H                     1.50484   4.42938   0.06808 
 O                     5.46779   2.04798   0.5733 
 H                     5.70136   2.22138  -0.38348 
 H                     4.4814    2.15324   0.69991 
 O                     0.27043   4.7578   -0.71753 
 H                     0.56867   5.585    -1.19378 
 H                    -0.69394   4.58648  -0.91922 
 O                     2.5587   -3.96046   1.54733 
 H                     1.86698  -3.25185   1.68686 
 H                     2.74839  -4.41678   2.41671 
 O                     2.42437  -1.32978   4.37661 
 H                     3.27557  -1.08441   3.91261 
 H                     1.8929   -1.94518   3.79449 
 O                    -4.76147  -0.95448   2.79093 
 H                    -3.91135  -0.9105    3.31573 
 H                    -5.19269  -1.84614   2.92912 
 O                     0.78801  -0.01111   5.59949 
 H                     1.32745   0.62935   6.14615 
 H                     1.40112  -0.57984   5.05115 
 O                    -3.90844  -4.99692   1.09365 
 H                    -3.05572  -5.38752   0.74671 
 H                    -4.60136  -5.01614   0.37284 
 O                    -6.30095  -1.26391   0.7946 
 H                    -5.50353  -1.14826   1.38685 
 H                    -6.67307  -2.18459   0.91268 
 O                    -0.33403  -4.80529   3.29058 
 H                    -0.68953  -5.54344   2.71717 
 H                     0.35461  -5.17161   3.91638 
 
 NAtoms=     50 NQM=       50 NQMF=       0 NMMI=      0 NMMIF=      0
                NMic=       0 NMicF=      0.
                    Isotopes and Nuclear Properties:
 (Nuclear quadrupole moments (NQMom) in fm**2, nuclear magnetic moments (NMagM)
  in nuclear magnetons)

  Atom         1           2           3           4           5           6           7           8           9          10
 IAtWgt=          12           1           1          12           1          12           1          16          16           1
 AtmWgt=  12.0000000   1.0078250   1.0078250  12.0000000   1.0078250  12.0000000   1.0078250  15.9949146  15.9949146   1.0078250
 NucSpn=           0           1           1           0           1           0           1           0           0           1
 AtZEff=   0.0000000   0.0000000   0.0000000   0.0000000   0.0000000   0.0000000   0.0000000   0.0000000   0.0000000   0.0000000
 NQMom=    0.0000000   0.0000000   0.0000000   0.0000000   0.0000000   0.0000000   0.0000000   0.0000000   0.0000000   0.0000000
 NMagM=    0.0000000   2.7928460   2.7928460   0.0000000   2.7928460   0.0000000   2.7928460   0.0000000   0.0000000   2.7928460
 AtZNuc=   6.0000000   1.0000000   1.0000000   6.0000000   1.0000000   6.0000000   1.0000000   8.0000000   8.0000000   1.0000000

  Atom        11          12          13          14          15          16          17          18          19          20
 IAtWgt=           1          16           1           1          16           1           1          16           1           1
 AtmWgt=   1.0078250  15.9949146   1.0078250   1.0078250  15.9949146   1.0078250   1.0078250  15.9949146   1.0078250   1.0078250
 NucSpn=           1           0           1           1           0           1           1           0           1           1
 AtZEff=   0.0000000   0.0000000   0.0000000   0.0000000   0.0000000   0.0000000   0.0000000   0.0000000   0.0000000   0.0000000
 NQMom=    0.0000000   0.0000000   0.0000000   0.0000000   0.0000000   0.0000000   0.0000000   0.0000000   0.0000000   0.0000000
 NMagM=    2.7928460   0.0000000   2.7928460   2.7928460   0.0000000   2.7928460   2.7928460   0.0000000   2.7928460   2.7928460
 AtZNuc=   1.0000000   8.0000000   1.0000000   1.0000000   8.0000000   1.0000000   1.0000000   8.0000000   1.0000000   1.0000000

  Atom        21          22          23          24          25          26          27          28          29          30
 IAtWgt=          16           1           1          16           1           1          16           1           1          16
 AtmWgt=  15.9949146   1.0078250   1.0078250  15.9949146   1.0078250   1.0078250  15.9949146   1.0078250   1.0078250  15.9949146
 NucSpn=           0           1           1           0           1           1           0           1           1           0
 AtZEff=   0.0000000   0.0000000   0.0000000   0.0000000   0.0000000   0.0000000   0.0000000   0.0000000   0.0000000   0.0000000
 NQMom=    0.0000000   0.0000000   0.0000000   0.0000000   0.0000000   0.0000000   0.0000000   0.0000000   0.0000000   0.0000000
 NMagM=    0.0000000   2.7928460   2.7928460   0.0000000   2.7928460   2.7928460   0.0000000   2.7928460   2.7928460   0.0000000
 AtZNuc=   8.0000000   1.0000000   1.0000000   8.0000000   1.0000000   1.0000000   8.0000000   1.0000000   1.0000000   8.0000000

  Atom        31          32          33          34          35          36          37          38          39          40
 IAtWgt=           1           1          16           1           1          16           1           1          16           1
 AtmWgt=   1.0078250   1.0078250  15.9949146   1.0078250   1.0078250  15.9949146   1.0078250   1.0078250  15.9949146   1.0078250
 NucSpn=           1           1           0           1           1           0           1           1           0           1
 AtZEff=   0.0000000   0.0000000   0.0000000   0.0000000   0.0000000   0.0000000   0.0000000   0.0000000   0.0000000   0.0000000
 NQMom=    0.0000000   0.0000000   0.0000000   0.0000000   0.0000000   0.0000000   0.0000000   0.0000000   0.0000000   0.0000000
 NMagM=    2.7928460   2.7928460   0.0000000   2.7928460   2.7928460   0.0000000   2.7928460   2.7928460   0.0000000   2.7928460
 AtZNuc=   1.0000000   1.0000000   8.0000000   1.0000000   1.0000000   8.0000000   1.0000000   1.0000000   8.0000000   1.0000000

  Atom        41          42          43          44          45          46          47          48          49          50
 IAtWgt=           1          16           1           1          16           1           1          16           1           1
 AtmWgt=   1.0078250  15.9949146   1.0078250   1.0078250  15.9949146   1.0078250   1.0078250  15.9949146   1.0078250   1.0078250
 NucSpn=           1           0           1           1           0           1           1           0           1           1
 AtZEff=   0.0000000   0.0000000   0.0000000   0.0000000   0.0000000   0.0000000   0.0000000   0.0000000   0.0000000   0.0000000
 NQMom=    0.0000000   0.0000000   0.0000000   0.0000000   0.0000000   0.0000000   0.0000000   0.0000000   0.0000000   0.0000000
 NMagM=    2.7928460   0.0000000   2.7928460   2.7928460   0.0000000   2.7928460   2.7928460   0.0000000   2.7928460   2.7928460
 AtZNuc=   1.0000000   8.0000000   1.0000000   1.0000000   8.0000000   1.0000000   1.0000000   8.0000000   1.0000000   1.0000000
 Background charge distribution read from input stream:
 Point Charges:
 XYZ=    3.5245    5.8234    1.8643 Q=   -0.8200 A=    0.0000 R=    0.0000 C=    0.0000
 XYZ=    2.9749    5.1572    1.3600 Q=    0.4100 A=    0.0000 R=    0.0000 C=    0.0000
 XYZ=    3.9557    6.4554    1.2204 Q=    0.4100 A=    0.0000 R=    0.0000 C=    0.0000
 XYZ=   -2.5270    3.8238   -4.5371 Q=   -0.8200 A=    0.0000 R=    0.0000 C=    0.0000
 XYZ=   -1.6898    3.9089   -3.9968 Q=    0.4100 A=    0.0000 R=    0.0000 C=    0.0000
 XYZ=   -3.3082    4.1262   -3.9910 Q=    0.4100 A=    0.0000 R=    0.0000 C=    0.0000
 XYZ=    4.4886   -0.7053    3.4749 Q=   -0.8200 A=    0.0000 R=    0.0000 C=    0.0000
 XYZ=    5.0230   -0.0426    3.9997 Q=    0.4100 A=    0.0000 R=    0.0000 C=    0.0000
 XYZ=    4.9976   -0.9700    2.6558 Q=    0.4100 A=    0.0000 R=    0.0000 C=    0.0000
 XYZ=   -2.2222   -4.3399    4.5939 Q=   -0.8200 A=    0.0000 R=    0.0000 C=    0.0000
 XYZ=   -1.4011   -4.4573    4.0354 Q=    0.4100 A=    0.0000 R=    0.0000 C=    0.0000
 XYZ=   -2.3062   -5.1082    5.2286 Q=    0.4100 A=    0.0000 R=    0.0000 C=    0.0000
 XYZ=   -5.7007   -4.0279   -4.5252 Q=   -0.8200 A=    0.0000 R=    0.0000 C=    0.0000
 XYZ=   -5.2345   -3.4224   -3.8801 Q=    0.4100 A=    0.0000 R=    0.0000 C=    0.0000
 XYZ=   -6.0421   -3.4924   -5.2977 Q=    0.4100 A=    0.0000 R=    0.0000 C=    0.0000
 XYZ=   -4.2060   -4.6604    3.3982 Q=   -0.8200 A=    0.0000 R=    0.0000 C=    0.0000
 XYZ=   -3.3764   -4.4043    3.8944 Q=    0.4100 A=    0.0000 R=    0.0000 C=    0.0000
 XYZ=   -3.9915   -4.7777    2.4285 Q=    0.4100 A=    0.0000 R=    0.0000 C=    0.0000
 XYZ=   -6.6321    0.2244   -0.9123 Q=   -0.8200 A=    0.0000 R=    0.0000 C=    0.0000
 XYZ=   -6.4597   -0.3103   -1.7396 Q=    0.4100 A=    0.0000 R=    0.0000 C=    0.0000
 XYZ=   -6.5274   -0.3616   -0.1088 Q=    0.4100 A=    0.0000 R=    0.0000 C=    0.0000
 XYZ=    3.7162    5.6253   -1.3870 Q=   -0.8200 A=    0.0000 R=    0.0000 C=    0.0000
 XYZ=    4.2715    6.2138   -0.7993 Q=    0.4100 A=    0.0000 R=    0.0000 C=    0.0000
 XYZ=    4.3145    5.0279   -1.9211 Q=    0.4100 A=    0.0000 R=    0.0000 C=    0.0000
 XYZ=    3.0198    0.4972   -6.6357 Q=   -0.8200 A=    0.0000 R=    0.0000 C=    0.0000
 XYZ=    3.2982    1.0716   -7.4055 Q=    0.4100 A=    0.0000 R=    0.0000 C=    0.0000
 XYZ=    2.1425    0.8192   -6.2799 Q=    0.4100 A=    0.0000 R=    0.0000 C=    0.0000
 XYZ=    1.9165   -5.8898   -0.9507 Q=   -0.8200 A=    0.0000 R=    0.0000 C=    0.0000
 XYZ=    1.8365   -5.0826   -0.3659 Q=    0.4100 A=    0.0000 R=    0.0000 C=    0.0000
 XYZ=    2.8790   -6.0470   -1.1720 Q=    0.4100 A=    0.0000 R=    0.0000 C=    0.0000
 XYZ=    3.9523   -0.4300   -4.7016 Q=   -0.8200 A=    0.0000 R=    0.0000 C=    0.0000
 XYZ=    3.4807    0.0066   -5.4677 Q=    0.4100 A=    0.0000 R=    0.0000 C=    0.0000
 XYZ=    4.6918    0.1635   -4.3836 Q=    0.4100 A=    0.0000 R=    0.0000 C=    0.0000
 XYZ=    6.8658    0.2390    0.5986 Q=   -0.8200 A=    0.0000 R=    0.0000 C=    0.0000
 XYZ=    6.0993    0.8761    0.6799 Q=    0.4100 A=    0.0000 R=    0.0000 C=    0.0000
 XYZ=    6.6157   -0.6376    1.0098 Q=    0.4100 A=    0.0000 R=    0.0000 C=    0.0000
 XYZ=    5.9537    2.3206   -2.0853 Q=   -0.8200 A=    0.0000 R=    0.0000 C=    0.0000
 XYZ=    5.6288    3.1497   -2.5403 Q=    0.4100 A=    0.0000 R=    0.0000 C=    0.0000
 XYZ=    5.8739    1.5442   -2.7105 Q=    0.4100 A=    0.0000 R=    0.0000 C=    0.0000
 XYZ=    1.5645    6.5250   -1.6405 Q=   -0.8200 A=    0.0000 R=    0.0000 C=    0.0000
 XYZ=    2.4816    6.1365   -1.7296 Q=    0.4100 A=    0.0000 R=    0.0000 C=    0.0000
 XYZ=    1.2008    6.7325   -2.5486 Q=    0.4100 A=    0.0000 R=    0.0000 C=    0.0000
 XYZ=   -2.2806    5.4062    1.5740 Q=   -0.8200 A=    0.0000 R=    0.0000 C=    0.0000
 XYZ=   -3.2335    5.2034    1.7998 Q=    0.4100 A=    0.0000 R=    0.0000 C=    0.0000
 XYZ=   -1.6772    4.9096    2.1980 Q=    0.4100 A=    0.0000 R=    0.0000 C=    0.0000
 XYZ=   -4.6350    0.5643    4.6388 Q=   -0.8200 A=    0.0000 R=    0.0000 C=    0.0000
 XYZ=   -3.6608    0.4137    4.8072 Q=    0.4100 A=    0.0000 R=    0.0000 C=    0.0000
 XYZ=   -4.9031    0.0993    3.7950 Q=    0.4100 A=    0.0000 R=    0.0000 C=    0.0000
 XYZ=   -1.3745   -6.4879    1.7420 Q=   -0.8200 A=    0.0000 R=    0.0000 C=    0.0000
 XYZ=   -0.8714   -6.3175    0.8947 Q=    0.4100 A=    0.0000 R=    0.0000 C=    0.0000
 XYZ=   -2.1809   -7.0455    1.5443 Q=    0.4100 A=    0.0000 R=    0.0000 C=    0.0000
 XYZ=   -2.3494    4.9152   -0.8867 Q=   -0.8200 A=    0.0000 R=    0.0000 C=    0.0000
 XYZ=   -3.2739    4.5985   -1.0990 Q=    0.4100 A=    0.0000 R=    0.0000 C=    0.0000
 XYZ=   -2.2580    5.0386    0.1015 Q=    0.4100 A=    0.0000 R=    0.0000 C=    0.0000
 XYZ=   -0.2812   -6.5287   -0.3638 Q=   -0.8200 A=    0.0000 R=    0.0000 C=    0.0000
 XYZ=    0.6410   -6.2986   -0.6746 Q=    0.4100 A=    0.0000 R=    0.0000 C=    0.0000
 XYZ=   -0.6288   -7.3014   -0.8950 Q=    0.4100 A=    0.0000 R=    0.0000 C=    0.0000
 XYZ=   -2.4516   -2.2767    5.7476 Q=   -0.8200 A=    0.0000 R=    0.0000 C=    0.0000
 XYZ=   -3.1532   -2.3117    6.4594 Q=    0.4100 A=    0.0000 R=    0.0000 C=    0.0000
 XYZ=   -2.4023   -3.1617    5.2845 Q=    0.4100 A=    0.0000 R=    0.0000 C=    0.0000
 XYZ=   -3.2522    2.1670   -6.1595 Q=   -0.8200 A=    0.0000 R=    0.0000 C=    0.0000
 XYZ=   -2.8234    2.8338   -5.5498 Q=    0.4100 A=    0.0000 R=    0.0000 C=    0.0000
 XYZ=   -3.3243    2.5540   -7.0788 Q=    0.4100 A=    0.0000 R=    0.0000 C=    0.0000
 XYZ=   -5.5824   -5.2159   -0.2942 Q=   -0.8200 A=    0.0000 R=    0.0000 C=    0.0000
 XYZ=   -6.1200   -5.0722   -1.1252 Q=    0.4100 A=    0.0000 R=    0.0000 C=    0.0000
 XYZ=   -5.3048   -6.1750   -0.2385 Q=    0.4100 A=    0.0000 R=    0.0000 C=    0.0000
 XYZ=    6.3681    3.3708    2.4541 Q=   -0.8200 A=    0.0000 R=    0.0000 C=    0.0000
 XYZ=    5.8151    4.1238    2.8109 Q=    0.4100 A=    0.0000 R=    0.0000 C=    0.0000
 XYZ=    5.8213    2.8291    1.8157 Q=    0.4100 A=    0.0000 R=    0.0000 C=    0.0000
 XYZ=   -5.8871   -3.0181    3.1000 Q=   -0.8200 A=    0.0000 R=    0.0000 C=    0.0000
 XYZ=   -6.4565   -2.9609    3.9201 Q=    0.4100 A=    0.0000 R=    0.0000 C=    0.0000
 XYZ=   -5.1451   -3.6706    3.2542 Q=    0.4100 A=    0.0000 R=    0.0000 C=    0.0000
 XYZ=   -6.8668   -3.6433    1.0681 Q=   -0.8200 A=    0.0000 R=    0.0000 C=    0.0000
 XYZ=   -6.2347   -4.2120    0.5418 Q=    0.4100 A=    0.0000 R=    0.0000 C=    0.0000
 XYZ=   -6.4650   -3.4362    1.9601 Q=    0.4100 A=    0.0000 R=    0.0000 C=    0.0000
 XYZ=    2.9804   -2.4549    6.3582 Q=   -0.8200 A=    0.0000 R=    0.0000 C=    0.0000
 XYZ=    2.7364   -1.8865    5.5723 Q=    0.4100 A=    0.0000 R=    0.0000 C=    0.0000
 XYZ=    3.2946   -1.8711    7.1069 Q=    0.4100 A=    0.0000 R=    0.0000 C=    0.0000
 XYZ=    4.5325   -2.9701    4.6680 Q=   -0.8200 A=    0.0000 R=    0.0000 C=    0.0000
 XYZ=    4.5065   -2.0701    4.2327 Q=    0.4100 A=    0.0000 R=    0.0000 C=    0.0000
 XYZ=    4.0574   -2.9290    5.5470 Q=    0.4100 A=    0.0000 R=    0.0000 C=    0.0000
 XYZ=   -0.3214   -1.8230    6.8337 Q=   -0.8200 A=    0.0000 R=    0.0000 C=    0.0000
 XYZ=    0.1849   -1.0223    6.5132 Q=    0.4100 A=    0.0000 R=    0.0000 C=    0.0000
 XYZ=   -1.1212   -1.9668    6.2509 Q=    0.4100 A=    0.0000 R=    0.0000 C=    0.0000
 XYZ=    4.5095   -4.3804    0.4384 Q=   -0.8200 A=    0.0000 R=    0.0000 C=    0.0000
 XYZ=    3.6635   -4.1872    0.9353 Q=    0.4100 A=    0.0000 R=    0.0000 C=    0.0000
 XYZ=    4.3098   -4.9735   -0.3417 Q=    0.4100 A=    0.0000 R=    0.0000 C=    0.0000
 XYZ=    5.4377   -2.2661   -3.8797 Q=   -0.8200 A=    0.0000 R=    0.0000 C=    0.0000
 XYZ=    6.1252   -1.9650   -3.2189 Q=    0.4100 A=    0.0000 R=    0.0000 C=    0.0000
 XYZ=    4.8229   -1.5061   -4.0908 Q=    0.4100 A=    0.0000 R=    0.0000 C=    0.0000
 XYZ=   -6.5305    2.4896   -0.9126 Q=   -0.8200 A=    0.0000 R=    0.0000 C=    0.0000
 XYZ=   -6.4997    1.4918   -0.8528 Q=    0.4100 A=    0.0000 R=    0.0000 C=    0.0000
 XYZ=   -7.1409    2.7602   -1.6570 Q=    0.4100 A=    0.0000 R=    0.0000 C=    0.0000
 XYZ=   -5.4660    1.7424   -5.0588 Q=   -0.8200 A=    0.0000 R=    0.0000 C=    0.0000
 XYZ=   -5.7048    0.8337   -4.7162 Q=    0.4100 A=    0.0000 R=    0.0000 C=    0.0000
 XYZ=   -4.5047    1.7528   -5.3341 Q=    0.4100 A=    0.0000 R=    0.0000 C=    0.0000
 XYZ=    5.4974    4.5094   -2.8777 Q=   -0.8200 A=    0.0000 R=    0.0000 C=    0.0000
 XYZ=    6.3437    4.8308   -2.4527 Q=    0.4100 A=    0.0000 R=    0.0000 C=    0.0000
 XYZ=    5.5000    4.7493   -3.8486 Q=    0.4100 A=    0.0000 R=    0.0000 C=    0.0000
 XYZ=   -1.5239    6.8487   -2.1292 Q=   -0.8200 A=    0.0000 R=    0.0000 C=    0.0000
 XYZ=   -1.9021    6.0734   -1.6233 Q=    0.4100 A=    0.0000 R=    0.0000 C=    0.0000
 XYZ=   -1.5166    7.6581   -1.5420 Q=    0.4100 A=    0.0000 R=    0.0000 C=    0.0000
 XYZ=    6.2106    0.4223   -3.4870 Q=   -0.8200 A=    0.0000 R=    0.0000 C=    0.0000
 XYZ=    6.7549    0.4757   -4.3241 Q=    0.4100 A=    0.0000 R=    0.0000 C=    0.0000
 XYZ=    6.4911   -0.3784   -2.9576 Q=    0.4100 A=    0.0000 R=    0.0000 C=    0.0000
 XYZ=    7.9099    1.6994   -0.9393 Q=   -0.8200 A=    0.0000 R=    0.0000 C=    0.0000
 XYZ=    7.1429    1.9613   -1.5252 Q=    0.4100 A=    0.0000 R=    0.0000 C=    0.0000
 XYZ=    7.5719    1.1558   -0.1711 Q=    0.4100 A=    0.0000 R=    0.0000 C=    0.0000
 XYZ=    6.0751   -1.9012    2.0120 Q=   -0.8200 A=    0.0000 R=    0.0000 C=    0.0000
 XYZ=    6.1333   -2.2914    1.0931 Q=    0.4100 A=    0.0000 R=    0.0000 C=    0.0000
 XYZ=    6.2281   -2.6204    2.6897 Q=    0.4100 A=    0.0000 R=    0.0000 C=    0.0000
 XYZ=    5.0172    5.0518    3.4905 Q=   -0.8200 A=    0.0000 R=    0.0000 C=    0.0000
 XYZ=    4.6788    4.8549    4.4107 Q=    0.4100 A=    0.0000 R=    0.0000 C=    0.0000
 XYZ=    4.2520    5.3163    2.9035 Q=    0.4100 A=    0.0000 R=    0.0000 C=    0.0000
 XYZ=    2.3243    8.1774    0.0836 Q=   -0.8200 A=    0.0000 R=    0.0000 C=    0.0000
 XYZ=    1.6565    8.4784    0.7643 Q=    0.4100 A=    0.0000 R=    0.0000 C=    0.0000
 XYZ=    1.9667    7.3813   -0.4048 Q=    0.4100 A=    0.0000 R=    0.0000 C=    0.0000
 XYZ=    5.6398    0.5805    5.0684 Q=   -0.8200 A=    0.0000 R=    0.0000 C=    0.0000
 XYZ=    5.8517    0.0976    5.9181 Q=    0.4100 A=    0.0000 R=    0.0000 C=    0.0000
 XYZ=    5.0835    1.3860    5.2726 Q=    0.4100 A=    0.0000 R=    0.0000 C=    0.0000
 XYZ=   -6.7242   -5.2526   -2.3051 Q=   -0.8200 A=    0.0000 R=    0.0000 C=    0.0000
 XYZ=   -7.7077   -5.1504   -2.1556 Q=    0.4100 A=    0.0000 R=    0.0000 C=    0.0000
 XYZ=   -6.4758   -4.8407   -3.1819 Q=    0.4100 A=    0.0000 R=    0.0000 C=    0.0000
 XYZ=    2.3992    1.1564    7.0291 Q=   -0.8200 A=    0.0000 R=    0.0000 C=    0.0000
 XYZ=    2.6629    0.6724    7.8634 Q=    0.4100 A=    0.0000 R=    0.0000 C=    0.0000
 XYZ=    3.1851    1.6638    6.6756 Q=    0.4100 A=    0.0000 R=    0.0000 C=    0.0000
 XYZ=    6.8877   -1.3741   -2.1469 Q=   -0.8200 A=    0.0000 R=    0.0000 C=    0.0000
 XYZ=    7.7902   -1.0199   -1.9015 Q=    0.4100 A=    0.0000 R=    0.0000 C=    0.0000
 XYZ=    6.4894   -1.8455   -1.3601 Q=    0.4100 A=    0.0000 R=    0.0000 C=    0.0000
 XYZ=    6.2182   -2.7068   -0.2446 Q=   -0.8200 A=    0.0000 R=    0.0000 C=    0.0000
 XYZ=    5.4249   -3.2790   -0.0365 Q=    0.4100 A=    0.0000 R=    0.0000 C=    0.0000
 XYZ=    7.0452   -3.2691   -0.2393 Q=    0.4100 A=    0.0000 R=    0.0000 C=    0.0000
 XYZ=   -4.8423    4.2032   -1.1962 Q=   -0.8200 A=    0.0000 R=    0.0000 C=    0.0000
 XYZ=   -5.1055    4.9036   -0.5328 Q=    0.4100 A=    0.0000 R=    0.0000 C=    0.0000
 XYZ=   -5.3769    3.3737   -1.0350 Q=    0.4100 A=    0.0000 R=    0.0000 C=    0.0000
 XYZ=   -1.9737    5.1575   -6.4170 Q=   -0.8200 A=    0.0000 R=    0.0000 C=    0.0000
 XYZ=   -2.2726    4.6661   -5.5989 Q=    0.4100 A=    0.0000 R=    0.0000 C=    0.0000
 XYZ=   -2.7626    5.3366   -7.0049 Q=    0.4100 A=    0.0000 R=    0.0000 C=    0.0000
 XYZ=    3.3747   -5.0237    3.7724 Q=   -0.8200 A=    0.0000 R=    0.0000 C=    0.0000
 XYZ=    2.6639   -5.3501    4.3954 Q=    0.4100 A=    0.0000 R=    0.0000 C=    0.0000
 XYZ=    3.7082   -4.1339    4.0841 Q=    0.4100 A=    0.0000 R=    0.0000 C=    0.0000
 XYZ=   -4.4142    4.7275   -3.4900 Q=   -0.8200 A=    0.0000 R=    0.0000 C=    0.0000
 XYZ=   -4.5431    4.5267   -2.5188 Q=    0.4100 A=    0.0000 R=    0.0000 C=    0.0000
 XYZ=   -5.2332    4.4591   -3.9973 Q=    0.4100 A=    0.0000 R=    0.0000 C=    0.0000
 XYZ=   -8.0754   -0.3513    2.2860 Q=   -0.8200 A=    0.0000 R=    0.0000 C=    0.0000
 XYZ=   -7.3128   -0.7128    1.7495 Q=    0.4100 A=    0.0000 R=    0.0000 C=    0.0000
 XYZ=   -7.8888    0.6000    2.5313 Q=    0.4100 A=    0.0000 R=    0.0000 C=    0.0000
 XYZ=    0.3419    6.9937   -3.6358 Q=   -0.8200 A=    0.0000 R=    0.0000 C=    0.0000
 XYZ=   -0.4579    6.8720   -3.0480 Q=    0.4100 A=    0.0000 R=    0.0000 C=    0.0000
 XYZ=    0.0911    6.7998   -4.5842 Q=    0.4100 A=    0.0000 R=    0.0000 C=    0.0000
 XYZ=   -5.1117   -6.1413   -5.0665 Q=   -0.8200 A=    0.0000 R=    0.0000 C=    0.0000
 XYZ=   -5.3153   -5.1711   -4.9350 Q=    0.4100 A=    0.0000 R=    0.0000 C=    0.0000
 XYZ=   -5.5141   -6.6705   -4.3195 Q=    0.4100 A=    0.0000 R=    0.0000 C=    0.0000
 XYZ=    4.2774    2.2348    6.1158 Q=   -0.8200 A=    0.0000 R=    0.0000 C=    0.0000
 XYZ=    4.6989    2.1626    7.0197 Q=    0.4100 A=    0.0000 R=    0.0000 C=    0.0000
 XYZ=    4.2375    3.1959    5.8425 Q=    0.4100 A=    0.0000 R=    0.0000 C=    0.0000
 XYZ=    2.1077    7.3290    3.3739 Q=   -0.8200 A=    0.0000 R=    0.0000 C=    0.0000
 XYZ=    1.3691    7.7801    2.8728 Q=    0.4100 A=    0.0000 R=    0.0000 C=    0.0000
 XYZ=    2.6189    6.7360    2.7517 Q=    0.4100 A=    0.0000 R=    0.0000 C=    0.0000
 XYZ=    3.0442    5.1839   -6.0510 Q=   -0.8200 A=    0.0000 R=    0.0000 C=    0.0000
 XYZ=    3.9793    5.2349   -5.7003 Q=    0.4100 A=    0.0000 R=    0.0000 C=    0.0000
 XYZ=    2.4176    5.5984   -5.3910 Q=    0.4100 A=    0.0000 R=    0.0000 C=    0.0000
 XYZ=   -6.3099    3.1491    1.3446 Q=   -0.8200 A=    0.0000 R=    0.0000 C=    0.0000
 XYZ=   -5.4493    3.6197    1.5392 Q=    0.4100 A=    0.0000 R=    0.0000 C=    0.0000
 XYZ=   -6.3334    2.8824    0.3811 Q=    0.4100 A=    0.0000 R=    0.0000 C=    0.0000
 XYZ=   -0.5012   -8.3496    3.0439 Q=   -0.8200 A=    0.0000 R=    0.0000 C=    0.0000
 XYZ=   -0.1858   -9.0571    2.4114 Q=    0.4100 A=    0.0000 R=    0.0000 C=    0.0000
 XYZ=   -0.7901   -7.5444    2.5260 Q=    0.4100 A=    0.0000 R=    0.0000 C=    0.0000
 XYZ=    1.0502   -3.7988    6.8902 Q=   -0.8200 A=    0.0000 R=    0.0000 C=    0.0000
 XYZ=    1.8738   -3.2772    6.6675 Q=    0.4100 A=    0.0000 R=    0.0000 C=    0.0000
 XYZ=    0.2492   -3.2047    6.8160 Q=    0.4100 A=    0.0000 R=    0.0000 C=    0.0000
 XYZ=   -2.9404   -8.0539    0.8146 Q=   -0.8200 A=    0.0000 R=    0.0000 C=    0.0000
 XYZ=   -3.8182   -7.7532    0.4414 Q=    0.4100 A=    0.0000 R=    0.0000 C=    0.0000
 XYZ=   -2.3160   -8.2710    0.0642 Q=    0.4100 A=    0.0000 R=    0.0000 C=    0.0000
 XYZ=   -1.5454    7.8512    1.1941 Q=   -0.8200 A=    0.0000 R=    0.0000 C=    0.0000
 XYZ=   -1.9293    8.5139    1.8372 Q=    0.4100 A=    0.0000 R=    0.0000 C=    0.0000
 XYZ=   -1.8652    6.9336    1.4305 Q=    0.4100 A=    0.0000 R=    0.0000 C=    0.0000
 XYZ=   -2.7020   -6.5177   -5.7997 Q=   -0.8200 A=    0.0000 R=    0.0000 C=    0.0000
 XYZ=   -2.8092   -6.7271   -6.7717 Q=    0.4100 A=    0.0000 R=    0.0000 C=    0.0000
 XYZ=   -3.6035   -6.4058   -5.3815 Q=    0.4100 A=    0.0000 R=    0.0000 C=    0.0000
 XYZ=   -6.5088    2.0337    5.0009 Q=   -0.8200 A=    0.0000 R=    0.0000 C=    0.0000
 XYZ=   -5.7210    1.4851    4.7208 Q=    0.4100 A=    0.0000 R=    0.0000 C=    0.0000
 XYZ=   -7.1359    1.4675    5.5359 Q=    0.4100 A=    0.0000 R=    0.0000 C=    0.0000
 XYZ=    4.5016    7.1985    0.2976 Q=   -0.8200 A=    0.0000 R=    0.0000 C=    0.0000
 XYZ=    3.6872    7.7483    0.1116 Q=    0.4100 A=    0.0000 R=    0.0000 C=    0.0000
 XYZ=    5.2749    7.8028    0.4895 Q=    0.4100 A=    0.0000 R=    0.0000 C=    0.0000
 XYZ=    4.4871   -1.0782   -7.7113 Q=   -0.8200 A=    0.0000 R=    0.0000 C=    0.0000
 XYZ=    4.6671   -1.8182   -7.0632 Q=    0.4100 A=    0.0000 R=    0.0000 C=    0.0000
 XYZ=    3.9531   -0.3629   -7.2605 Q=    0.4100 A=    0.0000 R=    0.0000 C=    0.0000
 XYZ=   -0.9140   -5.5307   -7.0399 Q=   -0.8200 A=    0.0000 R=    0.0000 C=    0.0000
 XYZ=    0.0541   -5.6813   -6.8396 Q=    0.4100 A=    0.0000 R=    0.0000 C=    0.0000
 XYZ=   -1.4682   -5.8701   -6.2798 Q=    0.4100 A=    0.0000 R=    0.0000 C=    0.0000
 XYZ=   -5.5462   -5.9362    4.8760 Q=   -0.8200 A=    0.0000 R=    0.0000 C=    0.0000
 XYZ=   -5.0789   -5.5097    4.1015 Q=    0.4100 A=    0.0000 R=    0.0000 C=    0.0000
 XYZ=   -6.3456   -5.3895    5.1251 Q=    0.4100 A=    0.0000 R=    0.0000 C=    0.0000
 XYZ=   -5.0821   -7.4383   -0.0108 Q=   -0.8200 A=    0.0000 R=    0.0000 C=    0.0000
 XYZ=   -5.8517   -7.4769    0.6266 Q=    0.4100 A=    0.0000 R=    0.0000 C=    0.0000
 XYZ=   -5.2678   -8.0319   -0.7939 Q=    0.4100 A=    0.0000 R=    0.0000 C=    0.0000
 XYZ=    1.4580   -5.5288    5.2061 Q=   -0.8200 A=    0.0000 R=    0.0000 C=    0.0000
 XYZ=    0.7744   -6.2386    5.3760 Q=    0.4100 A=    0.0000 R=    0.0000 C=    0.0000
 XYZ=    1.4370   -4.8610    5.9501 Q=    0.4100 A=    0.0000 R=    0.0000 C=    0.0000
 XYZ=    1.1506    3.0332    8.3499 Q=   -0.8200 A=    0.0000 R=    0.0000 C=    0.0000
 XYZ=    1.4579    2.3460    7.6917 Q=    0.4100 A=    0.0000 R=    0.0000 C=    0.0000
 XYZ=    0.3009    2.7270    8.7792 Q=    0.4100 A=    0.0000 R=    0.0000 C=    0.0000
 XYZ=    7.3639    1.7702    3.7512 Q=   -0.8200 A=    0.0000 R=    0.0000 C=    0.0000
 XYZ=    6.8625    2.4413    3.2050 Q=    0.4100 A=    0.0000 R=    0.0000 C=    0.0000
 XYZ=    6.7195    1.2432    4.3054 Q=    0.4100 A=    0.0000 R=    0.0000 C=    0.0000
 XYZ=   -4.6053    4.7524    1.9498 Q=   -0.8200 A=    0.0000 R=    0.0000 C=    0.0000
 XYZ=   -5.1199    5.2584    1.2576 Q=    0.4100 A=    0.0000 R=    0.0000 C=    0.0000
 XYZ=   -4.9640    4.9706    2.8574 Q=    0.4100 A=    0.0000 R=    0.0000 C=    0.0000
 XYZ=    5.0717   -4.6342   -3.6152 Q=   -0.8200 A=    0.0000 R=    0.0000 C=    0.0000
 XYZ=    5.3013   -3.6666   -3.5093 Q=    0.4100 A=    0.0000 R=    0.0000 C=    0.0000
 XYZ=    4.7788   -4.8063   -4.5557 Q=    0.4100 A=    0.0000 R=    0.0000 C=    0.0000
 XYZ=   -6.0296   -7.2730   -3.1703 Q=   -0.8200 A=    0.0000 R=    0.0000 C=    0.0000
 XYZ=   -6.3672   -6.5036   -2.6280 Q=    0.4100 A=    0.0000 R=    0.0000 C=    0.0000
 XYZ=   -6.7942   -7.8695   -3.4145 Q=    0.4100 A=    0.0000 R=    0.0000 C=    0.0000
 XYZ=   -5.8676   -0.8934    6.6350 Q=   -0.8200 A=    0.0000 R=    0.0000 C=    0.0000
 XYZ=   -5.2875   -0.2873    6.0907 Q=    0.4100 A=    0.0000 R=    0.0000 C=    0.0000
 XYZ=   -5.3030   -1.3949    7.2905 Q=    0.4100 A=    0.0000 R=    0.0000 C=    0.0000
 XYZ=    2.5534    6.0069    5.2849 Q=   -0.8200 A=    0.0000 R=    0.0000 C=    0.0000
 XYZ=    2.2397    6.4174    4.4286 Q=    0.4100 A=    0.0000 R=    0.0000 C=    0.0000
 XYZ=    1.9151    6.2385    6.0190 Q=    0.4100 A=    0.0000 R=    0.0000 C=    0.0000
 XYZ=    4.1657    4.5509    5.7628 Q=   -0.8200 A=    0.0000 R=    0.0000 C=    0.0000
 XYZ=    4.7787    5.0275    6.3930 Q=    0.4100 A=    0.0000 R=    0.0000 C=    0.0000
 XYZ=    3.3468    5.1046    5.6117 Q=    0.4100 A=    0.0000 R=    0.0000 C=    0.0000
 XYZ=    6.2477   -3.9699    3.3203 Q=   -0.8200 A=    0.0000 R=    0.0000 C=    0.0000
 XYZ=    5.6006   -3.5192    3.9353 Q=    0.4100 A=    0.0000 R=    0.0000 C=    0.0000
 XYZ=    5.8540   -4.8293    2.9941 Q=    0.4100 A=    0.0000 R=    0.0000 C=    0.0000
 XYZ=    5.3998   -2.8127   -6.3466 Q=   -0.8200 A=    0.0000 R=    0.0000 C=    0.0000
 XYZ=    5.3173   -2.5169   -5.3948 Q=    0.4100 A=    0.0000 R=    0.0000 C=    0.0000
 XYZ=    6.3099   -3.1983   -6.4981 Q=    0.4100 A=    0.0000 R=    0.0000 C=    0.0000
 XYZ=   -6.1357    3.9166   -4.7185 Q=   -0.8200 A=    0.0000 R=    0.0000 C=    0.0000
 XYZ=   -6.4184    4.2891   -5.6025 Q=    0.4100 A=    0.0000 R=    0.0000 C=    0.0000
 XYZ=   -5.8331    2.9708   -4.8367 Q=    0.4100 A=    0.0000 R=    0.0000 C=    0.0000
 XYZ=    8.7454    0.3943    2.0615 Q=   -0.8200 A=    0.0000 R=    0.0000 C=    0.0000
 XYZ=    8.6059    0.8772    2.9260 Q=    0.4100 A=    0.0000 R=    0.0000 C=    0.0000
 XYZ=    7.8688    0.2932    1.5910 Q=    0.4100 A=    0.0000 R=    0.0000 C=    0.0000
 XYZ=    0.1234    4.8320   -8.0723 Q=   -0.8200 A=    0.0000 R=    0.0000 C=    0.0000
 XYZ=   -0.4437    4.6358   -7.2723 Q=    0.4100 A=    0.0000 R=    0.0000 C=    0.0000
 XYZ=    0.9794    4.3190   -8.0079 Q=    0.4100 A=    0.0000 R=    0.0000 C=    0.0000
 XYZ=    4.2166   -5.7064   -1.4223 Q=   -0.8200 A=    0.0000 R=    0.0000 C=    0.0000
 XYZ=    4.9396   -6.3573   -1.1905 Q=    0.4100 A=    0.0000 R=    0.0000 C=    0.0000
 XYZ=    4.4299   -5.2686   -2.2957 Q=    0.4100 A=    0.0000 R=    0.0000 C=    0.0000
 XYZ=   -1.5277   -8.7540   -0.8230 Q=   -0.8200 A=    0.0000 R=    0.0000 C=    0.0000
 XYZ=   -1.0852   -9.1781   -0.0328 Q=    0.4100 A=    0.0000 R=    0.0000 C=    0.0000
 XYZ=   -2.1998   -9.3866   -1.2080 Q=    0.4100 A=    0.0000 R=    0.0000 C=    0.0000
 XYZ=   -8.3140   -5.2821    1.8814 Q=   -0.8200 A=    0.0000 R=    0.0000 C=    0.0000
 XYZ=   -9.0223   -5.4995    1.2097 Q=    0.4100 A=    0.0000 R=    0.0000 C=    0.0000
 XYZ=   -7.7634   -4.5163    1.5492 Q=    0.4100 A=    0.0000 R=    0.0000 C=    0.0000
 XYZ=   -1.6839   -1.2911    8.6012 Q=   -0.8200 A=    0.0000 R=    0.0000 C=    0.0000
 XYZ=   -1.1294   -1.5783    7.8201 Q=    0.4100 A=    0.0000 R=    0.0000 C=    0.0000
 XYZ=   -1.1857   -1.4740    9.4488 Q=    0.4100 A=    0.0000 R=    0.0000 C=    0.0000
 XYZ=    5.1724   -5.8414    2.2778 Q=   -0.8200 A=    0.0000 R=    0.0000 C=    0.0000
 XYZ=    4.9503   -5.2160    1.5298 Q=    0.4100 A=    0.0000 R=    0.0000 C=    0.0000
 XYZ=    4.4310   -5.8348    2.9490 Q=    0.4100 A=    0.0000 R=    0.0000 C=    0.0000
 XYZ=    0.6523    8.5573    1.7337 Q=   -0.8200 A=    0.0000 R=    0.0000 C=    0.0000
 XYZ=    0.4135    9.3570    2.2846 Q=    0.4100 A=    0.0000 R=    0.0000 C=    0.0000
 XYZ=   -0.1834    8.1200    1.4014 Q=    0.4100 A=    0.0000 R=    0.0000 C=    0.0000
 XYZ=    2.2869    3.8130   -8.1076 Q=   -0.8200 A=    0.0000 R=    0.0000 C=    0.0000
 XYZ=    2.5021    4.2343   -7.2266 Q=    0.4100 A=    0.0000 R=    0.0000 C=    0.0000
 XYZ=    2.8484    2.9949   -8.2318 Q=    0.4100 A=    0.0000 R=    0.0000 C=    0.0000
 XYZ=   -6.3223   -2.9127   -6.5200 Q=   -0.8200 A=    0.0000 R=    0.0000 C=    0.0000
 XYZ=   -5.8870   -3.4649   -7.2311 Q=    0.4100 A=    0.0000 R=    0.0000 C=    0.0000
 XYZ=   -6.7695   -2.1223   -6.9388 Q=    0.4100 A=    0.0000 R=    0.0000 C=    0.0000
 XYZ=   -7.6617    1.7805    2.9333 Q=   -0.8200 A=    0.0000 R=    0.0000 C=    0.0000
 XYZ=   -7.2065    2.4587    2.3564 Q=    0.4100 A=    0.0000 R=    0.0000 C=    0.0000
 XYZ=   -7.1738    1.7010    3.8026 Q=    0.4100 A=    0.0000 R=    0.0000 C=    0.0000
 XYZ=   -3.9209    7.0265   -2.9854 Q=   -0.8200 A=    0.0000 R=    0.0000 C=    0.0000
 XYZ=   -3.0171    6.9079   -2.5743 Q=    0.4100 A=    0.0000 R=    0.0000 C=    0.0000
 XYZ=   -4.2407    6.1502   -3.3458 Q=    0.4100 A=    0.0000 R=    0.0000 C=    0.0000
 XYZ=   -7.0432   -2.5014    5.1644 Q=   -0.8200 A=    0.0000 R=    0.0000 C=    0.0000
 XYZ=   -7.8474   -1.9921    4.8580 Q=    0.4100 A=    0.0000 R=    0.0000 C=    0.0000
 XYZ=   -6.4465   -1.8963    5.6915 Q=    0.4100 A=    0.0000 R=    0.0000 C=    0.0000
 XYZ=   -9.6108    1.0359   -0.8931 Q=   -0.8200 A=    0.0000 R=    0.0000 C=    0.0000
 XYZ=   -9.8943    1.9706   -1.1074 Q=    0.4100 A=    0.0000 R=    0.0000 C=    0.0000
 XYZ=   -8.6142    0.9986   -0.8188 Q=    0.4100 A=    0.0000 R=    0.0000 C=    0.0000
 XYZ=   -0.2078   -7.0983    5.1363 Q=   -0.8200 A=    0.0000 R=    0.0000 C=    0.0000
 XYZ=   -1.1274   -6.8870    5.4676 Q=    0.4100 A=    0.0000 R=    0.0000 C=    0.0000
 XYZ=   -0.2718   -7.6364    4.2958 Q=    0.4100 A=    0.0000 R=    0.0000 C=    0.0000
 XYZ=    8.1791    4.7787    2.9281 Q=   -0.8200 A=    0.0000 R=    0.0000 C=    0.0000
 XYZ=    8.3728    4.2842    3.7755 Q=    0.4100 A=    0.0000 R=    0.0000 C=    0.0000
 XYZ=    7.4202    4.3363    2.4501 Q=    0.4100 A=    0.0000 R=    0.0000 C=    0.0000
 XYZ=    5.6691    5.1729   -5.1889 Q=   -0.8200 A=    0.0000 R=    0.0000 C=    0.0000
 XYZ=    6.2834    5.9619   -5.2002 Q=    0.4100 A=    0.0000 R=    0.0000 C=    0.0000
 XYZ=    6.1079    4.4022   -5.6509 Q=    0.4100 A=    0.0000 R=    0.0000 C=    0.0000
 XYZ=    8.9616   -0.4302   -1.4507 Q=   -0.8200 A=    0.0000 R=    0.0000 C=    0.0000
 XYZ=    8.6726    0.4871   -1.1767 Q=    0.4100 A=    0.0000 R=    0.0000 C=    0.0000
 XYZ=    9.3025   -0.9249   -0.6512 Q=    0.4100 A=    0.0000 R=    0.0000 C=    0.0000
 XYZ=    7.5284    5.2186   -1.9292 Q=   -0.8200 A=    0.0000 R=    0.0000 C=    0.0000
 XYZ=    8.0195    4.4891   -1.4532 Q=    0.4100 A=    0.0000 R=    0.0000 C=    0.0000
 XYZ=    7.6185    6.0716   -1.4150 Q=    0.4100 A=    0.0000 R=    0.0000 C=    0.0000
 XYZ=   -2.4417   -6.1528    6.1617 Q=   -0.8200 A=    0.0000 R=    0.0000 C=    0.0000
 XYZ=   -2.2387   -5.6669    7.0118 Q=    0.4100 A=    0.0000 R=    0.0000 C=    0.0000
 XYZ=   -3.2744   -6.6943    6.2781 Q=    0.4100 A=    0.0000 R=    0.0000 C=    0.0000
 XYZ=   -5.6770    2.5099   -7.5057 Q=   -0.8200 A=    0.0000 R=    0.0000 C=    0.0000
 XYZ=   -6.0315    1.9264   -8.2363 Q=    0.4100 A=    0.0000 R=    0.0000 C=    0.0000
 XYZ=   -5.7306    2.0223   -6.6342 Q=    0.4100 A=    0.0000 R=    0.0000 C=    0.0000
 XYZ=    9.0179    3.8049   -0.8250 Q=   -0.8200 A=    0.0000 R=    0.0000 C=    0.0000
 XYZ=    8.6714    2.8675   -0.7886 Q=    0.4100 A=    0.0000 R=    0.0000 C=    0.0000
 XYZ=    9.5416    3.9991    0.0045 Q=    0.4100 A=    0.0000 R=    0.0000 C=    0.0000
 XYZ=    3.9825   -0.9396    7.8646 Q=   -0.8200 A=    0.0000 R=    0.0000 C=    0.0000
 XYZ=    4.1539   -0.8366    8.8444 Q=    0.4100 A=    0.0000 R=    0.0000 C=    0.0000
 XYZ=    4.8429   -0.8445    7.3639 Q=    0.4100 A=    0.0000 R=    0.0000 C=    0.0000
 XYZ=   -0.2426    6.8128   -6.0837 Q=   -0.8200 A=    0.0000 R=    0.0000 C=    0.0000
 XYZ=   -1.0721    6.2718   -6.2226 Q=    0.4100 A=    0.0000 R=    0.0000 C=    0.0000
 XYZ=   -0.2934    7.6475   -6.6320 Q=    0.4100 A=    0.0000 R=    0.0000 C=    0.0000
 XYZ=   -1.8409   -8.6271   -5.8015 Q=   -0.8200 A=    0.0000 R=    0.0000 C=    0.0000
 XYZ=   -2.0951   -7.6697   -5.6640 Q=    0.4100 A=    0.0000 R=    0.0000 C=    0.0000
 XYZ=   -1.9165   -8.8559   -6.7720 Q=    0.4100 A=    0.0000 R=    0.0000 C=    0.0000
 XYZ=    0.2085    9.3045   -3.0821 Q=   -0.8200 A=    0.0000 R=    0.0000 C=    0.0000
 XYZ=   -0.4516    9.7141   -3.7118 Q=    0.4100 A=    0.0000 R=    0.0000 C=    0.0000
 XYZ=    0.3964    8.3631   -3.3622 Q=    0.4100 A=    0.0000 R=    0.0000 C=    0.0000
 XYZ=    6.7617    6.6762    2.8982 Q=   -0.8200 A=    0.0000 R=    0.0000 C=    0.0000
 XYZ=    5.9819    6.1007    3.1448 Q=    0.4100 A=    0.0000 R=    0.0000 C=    0.0000
 XYZ=    7.5376    6.0970    2.6482 Q=    0.4100 A=    0.0000 R=    0.0000 C=    0.0000
 XYZ=   -3.7977   -2.1133    7.7519 Q=   -0.8200 A=    0.0000 R=    0.0000 C=    0.0000
 XYZ=   -3.0479   -1.6332    8.2072 Q=    0.4100 A=    0.0000 R=    0.0000 C=    0.0000
 XYZ=   -3.8943   -3.0283    8.1438 Q=    0.4100 A=    0.0000 R=    0.0000 C=    0.0000
 XYZ=   -7.5161    3.3241   -2.9205 Q=   -0.8200 A=    0.0000 R=    0.0000 C=    0.0000
 XYZ=   -6.8165    3.5998   -3.5798 Q=    0.4100 A=    0.0000 R=    0.0000 C=    0.0000
 XYZ=   -8.2603    2.8585   -3.3994 Q=    0.4100 A=    0.0000 R=    0.0000 C=    0.0000
 XYZ=    3.6880    1.8753   -8.4085 Q=   -0.8200 A=    0.0000 R=    0.0000 C=    0.0000
 XYZ=    4.6577    2.0596   -8.2484 Q=    0.4100 A=    0.0000 R=    0.0000 C=    0.0000
 XYZ=    3.5717    1.4653   -9.3132 Q=    0.4100 A=    0.0000 R=    0.0000 C=    0.0000
 XYZ=   -4.9897   -9.1130   -1.8889 Q=   -0.8200 A=    0.0000 R=    0.0000 C=    0.0000
 XYZ=   -5.7021   -9.8131   -1.8388 Q=    0.4100 A=    0.0000 R=    0.0000 C=    0.0000
 XYZ=   -5.2654   -8.4029   -2.5369 Q=    0.4100 A=    0.0000 R=    0.0000 C=    0.0000
 XYZ=   -0.9250    7.9428    5.4532 Q=   -0.8200 A=    0.0000 R=    0.0000 C=    0.0000
 XYZ=   -1.8203    8.3354    5.2429 Q=    0.4100 A=    0.0000 R=    0.0000 C=    0.0000
 XYZ=   -0.9230    6.9713    5.2162 Q=    0.4100 A=    0.0000 R=    0.0000 C=    0.0000
 XYZ=   -1.4880    8.8976   -0.8033 Q=   -0.8200 A=    0.0000 R=    0.0000 C=    0.0000
 XYZ=   -0.5892    9.3360   -0.8008 Q=    0.4100 A=    0.0000 R=    0.0000 C=    0.0000
 XYZ=   -1.6912    8.5487    0.1116 Q=    0.4100 A=    0.0000 R=    0.0000 C=    0.0000
 XYZ=   -6.7360   -7.3107    1.7114 Q=   -0.8200 A=    0.0000 R=    0.0000 C=    0.0000
 XYZ=   -7.2398   -6.4472    1.7377 Q=    0.4100 A=    0.0000 R=    0.0000 C=    0.0000
 XYZ=   -6.5009   -7.5878    2.6431 Q=    0.4100 A=    0.0000 R=    0.0000 C=    0.0000
 XYZ=   -2.6127   -9.2663    2.7550 Q=   -0.8200 A=    0.0000 R=    0.0000 C=    0.0000
 XYZ=   -1.7411   -8.8785    3.0549 Q=    0.4100 A=    0.0000 R=    0.0000 C=    0.0000
 XYZ=   -2.9028   -8.8193    1.9088 Q=    0.4100 A=    0.0000 R=    0.0000 C=    0.0000
 XYZ=   -1.3844   -1.2939  -10.0723 Q=   -0.8200 A=    0.0000 R=    0.0000 C=    0.0000
 XYZ=   -1.0890   -2.0997  -10.5856 Q=    0.4100 A=    0.0000 R=    0.0000 C=    0.0000
 XYZ=   -2.1321   -1.5458   -9.4579 Q=    0.4100 A=    0.0000 R=    0.0000 C=    0.0000
 XYZ=   -3.6516    3.1525   -8.4169 Q=   -0.8200 A=    0.0000 R=    0.0000 C=    0.0000
 XYZ=   -4.4900    2.8015   -7.9999 Q=    0.4100 A=    0.0000 R=    0.0000 C=    0.0000
 XYZ=   -3.6634    4.1523   -8.3982 Q=    0.4100 A=    0.0000 R=    0.0000 C=    0.0000
 XYZ=    1.0347    9.9236   -1.0350 Q=   -0.8200 A=    0.0000 R=    0.0000 C=    0.0000
 XYZ=    0.6987    9.6905   -1.9476 Q=    0.4100 A=    0.0000 R=    0.0000 C=    0.0000
 XYZ=    1.7168    9.2506   -0.7490 Q=    0.4100 A=    0.0000 R=    0.0000 C=    0.0000
 XYZ=    7.4813    0.6563   -5.4132 Q=   -0.8200 A=    0.0000 R=    0.0000 C=    0.0000
 XYZ=    7.8604    1.5165   -5.0719 Q=    0.4100 A=    0.0000 R=    0.0000 C=    0.0000
 XYZ=    8.2211   -0.0021   -5.5521 Q=    0.4100 A=    0.0000 R=    0.0000 C=    0.0000
 XYZ=    0.4442    5.5612    8.1978 Q=   -0.8200 A=    0.0000 R=    0.0000 C=    0.0000
 XYZ=    0.8450    5.9613    9.0221 Q=    0.4100 A=    0.0000 R=    0.0000 C=    0.0000
 XYZ=    0.6768    4.5897    8.1519 Q=    0.4100 A=    0.0000 R=    0.0000 C=    0.0000
 XYZ=   -5.4464   -6.2463   -7.4932 Q=   -0.8200 A=    0.0000 R=    0.0000 C=    0.0000
 XYZ=   -4.5634   -6.5172   -7.8766 Q=    0.4100 A=    0.0000 R=    0.0000 C=    0.0000
 XYZ=   -5.4243   -6.3510   -6.4989 Q=    0.4100 A=    0.0000 R=    0.0000 C=    0.0000
 XYZ=    6.2240   -0.5937    6.9889 Q=   -0.8200 A=    0.0000 R=    0.0000 C=    0.0000
 XYZ=    6.6272   -0.0953    7.7564 Q=    0.4100 A=    0.0000 R=    0.0000 C=    0.0000
 XYZ=    6.6277   -1.5071    6.9357 Q=    0.4100 A=    0.0000 R=    0.0000 C=    0.0000
 XYZ=   -7.6980    4.7949    2.1570 Q=   -0.8200 A=    0.0000 R=    0.0000 C=    0.0000
 XYZ=   -7.2204    4.0550    1.6833 Q=    0.4100 A=    0.0000 R=    0.0000 C=    0.0000
 XYZ=   -8.6747    4.7491    1.9474 Q=    0.4100 A=    0.0000 R=    0.0000 C=    0.0000
 XYZ=    0.9577   -0.5018  -10.5565 Q=   -0.8200 A=    0.0000 R=    0.0000 C=    0.0000
 XYZ=    1.5823   -1.2370  -10.8201 Q=    0.4100 A=    0.0000 R=    0.0000 C=    0.0000
 XYZ=    0.1888   -0.8851  -10.0448 Q=    0.4100 A=    0.0000 R=    0.0000 C=    0.0000
 XYZ=   -1.8808   -4.9365   -9.2889 Q=   -0.8200 A=    0.0000 R=    0.0000 C=    0.0000
 XYZ=   -1.4267   -4.3017   -9.9141 Q=    0.4100 A=    0.0000 R=    0.0000 C=    0.0000
 XYZ=   -1.3369   -5.0291   -8.4548 Q=    0.4100 A=    0.0000 R=    0.0000 C=    0.0000
 XYZ=    4.6538   -4.6602   -7.7533 Q=   -0.8200 A=    0.0000 R=    0.0000 C=    0.0000
 XYZ=    5.3416   -4.6352   -8.4789 Q=    0.4100 A=    0.0000 R=    0.0000 C=    0.0000
 XYZ=    4.7729   -3.8687   -7.1538 Q=    0.4100 A=    0.0000 R=    0.0000 C=    0.0000
 XYZ=    6.7812    0.0842   -7.5361 Q=   -0.8200 A=    0.0000 R=    0.0000 C=    0.0000
 XYZ=    7.0708    0.3177   -6.6078 Q=    0.4100 A=    0.0000 R=    0.0000 C=    0.0000
 XYZ=    5.8733   -0.3339   -7.5067 Q=    0.4100 A=    0.0000 R=    0.0000 C=    0.0000
 XYZ=   -7.5137   -4.9509    5.5378 Q=   -0.8200 A=    0.0000 R=    0.0000 C=    0.0000
 XYZ=   -8.2101   -5.1775    4.8569 Q=    0.4100 A=    0.0000 R=    0.0000 C=    0.0000
 XYZ=   -7.2619   -3.9871    5.4489 Q=    0.4100 A=    0.0000 R=    0.0000 C=    0.0000
 XYZ=    8.8052    4.9092   -3.8675 Q=   -0.8200 A=    0.0000 R=    0.0000 C=    0.0000
 XYZ=    8.3152    4.9872   -2.9992 Q=    0.4100 A=    0.0000 R=    0.0000 C=    0.0000
 XYZ=    9.7899    4.9563   -3.6999 Q=    0.4100 A=    0.0000 R=    0.0000 C=    0.0000
 XYZ=  -10.1915    0.4073    1.2675 Q=   -0.8200 A=    0.0000 R=    0.0000 C=    0.0000
 XYZ=  -10.0629    0.5041    0.2806 Q=    0.4100 A=    0.0000 R=    0.0000 C=    0.0000
 XYZ=   -9.4352   -0.1221    1.6519 Q=    0.4100 A=    0.0000 R=    0.0000 C=    0.0000
 XYZ=    8.4412    3.4128    5.0092 Q=   -0.8200 A=    0.0000 R=    0.0000 C=    0.0000
 XYZ=    7.9481    2.7043    4.5042 Q=    0.4100 A=    0.0000 R=    0.0000 C=    0.0000
 XYZ=    9.2040    2.9985    5.5056 Q=    0.4100 A=    0.0000 R=    0.0000 C=    0.0000
 XYZ=   -7.8331    0.2693    6.1252 Q=   -0.8200 A=    0.0000 R=    0.0000 C=    0.0000
 XYZ=   -8.3297   -0.3087    5.4776 Q=    0.4100 A=    0.0000 R=    0.0000 C=    0.0000
 XYZ=   -7.0245   -0.2182    6.4549 Q=    0.4100 A=    0.0000 R=    0.0000 C=    0.0000
 XYZ=   -5.7331    6.0282    0.1345 Q=   -0.8200 A=    0.0000 R=    0.0000 C=    0.0000
 XYZ=   -6.1008    6.3087   -0.7522 Q=    0.4100 A=    0.0000 R=    0.0000 C=    0.0000
 XYZ=   -6.0613    6.6521    0.8438 Q=    0.4100 A=    0.0000 R=    0.0000 C=    0.0000
 XYZ=   -9.0102   -1.3014    4.4824 Q=   -0.8200 A=    0.0000 R=    0.0000 C=    0.0000
 XYZ=   -8.9295   -0.8069    3.6170 Q=    0.4100 A=    0.0000 R=    0.0000 C=    0.0000
 XYZ=   -9.7720   -1.9470    4.4275 Q=    0.4100 A=    0.0000 R=    0.0000 C=    0.0000
 XYZ=    7.0037   -5.4433   -2.6437 Q=   -0.8200 A=    0.0000 R=    0.0000 C=    0.0000
 XYZ=    6.2471   -5.1150   -3.2092 Q=    0.4100 A=    0.0000 R=    0.0000 C=    0.0000
 XYZ=    7.8603   -5.3626   -3.1534 Q=    0.4100 A=    0.0000 R=    0.0000 C=    0.0000
 XYZ=   -5.3886    5.5259    4.0256 Q=   -0.8200 A=    0.0000 R=    0.0000 C=    0.0000
 XYZ=   -6.1708    5.9107    3.5357 Q=    0.4100 A=    0.0000 R=    0.0000 C=    0.0000
 XYZ=   -5.7147    4.9757    4.7944 Q=    0.4100 A=    0.0000 R=    0.0000 C=    0.0000
 XYZ=   -3.0181  -10.2207   -1.8496 Q=   -0.8200 A=    0.0000 R=    0.0000 C=    0.0000
 XYZ=   -3.0987  -10.8966   -2.5821 Q=    0.4100 A=    0.0000 R=    0.0000 C=    0.0000
 XYZ=   -3.8635   -9.6896   -1.7917 Q=    0.4100 A=    0.0000 R=    0.0000 C=    0.0000
 XYZ=    8.2932   -4.4641    2.1909 Q=   -0.8200 A=    0.0000 R=    0.0000 C=    0.0000
 XYZ=    7.5248   -3.9994    2.6310 Q=    0.4100 A=    0.0000 R=    0.0000 C=    0.0000
 XYZ=    8.1540   -4.4736    1.2006 Q=    0.4100 A=    0.0000 R=    0.0000 C=    0.0000
 XYZ=   -6.1922   -8.0091    3.8544 Q=   -0.8200 A=    0.0000 R=    0.0000 C=    0.0000
 XYZ=   -5.9524   -7.0961    4.1845 Q=    0.4100 A=    0.0000 R=    0.0000 C=    0.0000
 XYZ=   -5.4654   -8.6523    4.0955 Q=    0.4100 A=    0.0000 R=    0.0000 C=    0.0000
 XYZ=   -2.1828    0.8308    9.8826 Q=   -0.8200 A=    0.0000 R=    0.0000 C=    0.0000
 XYZ=   -1.9036    0.1497    9.2056 Q=    0.4100 A=    0.0000 R=    0.0000 C=    0.0000
 XYZ=   -2.9000    0.4476   10.4647 Q=    0.4100 A=    0.0000 R=    0.0000 C=    0.0000
 XYZ=   -9.1951   -5.4510   -2.0758 Q=   -0.8200 A=    0.0000 R=    0.0000 C=    0.0000
 XYZ=  -10.1219   -5.1131   -1.9116 Q=    0.4100 A=    0.0000 R=    0.0000 C=    0.0000
 XYZ=   -9.2369   -6.2835   -2.6282 Q=    0.4100 A=    0.0000 R=    0.0000 C=    0.0000
 XYZ=   -1.9208   -5.1364    8.1603 Q=   -0.8200 A=    0.0000 R=    0.0000 C=    0.0000
 XYZ=   -1.1464   -4.5874    8.4750 Q=    0.4100 A=    0.0000 R=    0.0000 C=    0.0000
 XYZ=   -2.7745   -4.7131    8.4635 Q=    0.4100 A=    0.0000 R=    0.0000 C=    0.0000
 XYZ=    0.5230   -3.8508    9.4038 Q=   -0.8200 A=    0.0000 R=    0.0000 C=    0.0000
 XYZ=    1.0153   -3.7727    8.5368 Q=    0.4100 A=    0.0000 R=    0.0000 C=    0.0000
 XYZ=    0.8060   -4.6871    9.8736 Q=    0.4100 A=    0.0000 R=    0.0000 C=    0.0000
 XYZ=   -4.4595   -7.1526    6.6679 Q=   -0.8200 A=    0.0000 R=    0.0000 C=    0.0000
 XYZ=   -4.9964   -6.6752    5.9724 Q=    0.4100 A=    0.0000 R=    0.0000 C=    0.0000
 XYZ=   -4.9269   -7.0914    7.5499 Q=    0.4100 A=    0.0000 R=    0.0000 C=    0.0000
 XYZ=    7.1791    3.7208   -6.5320 Q=   -0.8200 A=    0.0000 R=    0.0000 C=    0.0000
 XYZ=    7.6705    4.5212   -6.8752 Q=    0.4100 A=    0.0000 R=    0.0000 C=    0.0000
 XYZ=    7.7230    3.2756   -5.8207 Q=    0.4100 A=    0.0000 R=    0.0000 C=    0.0000
 XYZ=    8.5684    2.6953   -4.8268 Q=   -0.8200 A=    0.0000 R=    0.0000 C=    0.0000
 XYZ=    8.6212    3.6200   -4.4495 Q=    0.4100 A=    0.0000 R=    0.0000 C=    0.0000
 XYZ=    9.3118    2.1402   -4.4537 Q=    0.4100 A=    0.0000 R=    0.0000 C=    0.0000
 XYZ=    7.9095   -4.2907   -0.0562 Q=   -0.8200 A=    0.0000 R=    0.0000 C=    0.0000
 XYZ=    8.8097   -4.3998   -0.4779 Q=    0.4100 A=    0.0000 R=    0.0000 C=    0.0000
 XYZ=    7.2287   -4.7932   -0.5892 Q=    0.4100 A=    0.0000 R=    0.0000 C=    0.0000
 XYZ=    4.5933   -1.6328   -9.9638 Q=   -0.8200 A=    0.0000 R=    0.0000 C=    0.0000
 XYZ=    4.4949   -1.3005   -9.0257 Q=    0.4100 A=    0.0000 R=    0.0000 C=    0.0000
 XYZ=    5.4108   -2.2049  -10.0306 Q=    0.4100 A=    0.0000 R=    0.0000 C=    0.0000
 XYZ=   -5.4173   -4.0935   -8.4626 Q=   -0.8200 A=    0.0000 R=    0.0000 C=    0.0000
 XYZ=   -4.5523   -4.0222   -8.9594 Q=    0.4100 A=    0.0000 R=    0.0000 C=    0.0000
 XYZ=   -5.4776   -4.9911   -8.0258 Q=    0.4100 A=    0.0000 R=    0.0000 C=    0.0000
 XYZ=   -1.7684    5.0448    8.3926 Q=   -0.8200 A=    0.0000 R=    0.0000 C=    0.0000
 XYZ=   -0.8232    5.3704    8.4161 Q=    0.4100 A=    0.0000 R=    0.0000 C=    0.0000
 XYZ=   -1.7922    4.0732    8.6280 Q=    0.4100 A=    0.0000 R=    0.0000 C=    0.0000
 XYZ=   -1.2151  -10.2842   -4.3078 Q=   -0.8200 A=    0.0000 R=    0.0000 C=    0.0000
 XYZ=   -1.0103   -9.9219   -3.3985 Q=    0.4100 A=    0.0000 R=    0.0000 C=    0.0000
 XYZ=   -1.5145   -9.5390   -4.9037 Q=    0.4100 A=    0.0000 R=    0.0000 C=    0.0000
 XYZ=   -6.7219    4.1676    5.9821 Q=   -0.8200 A=    0.0000 R=    0.0000 C=    0.0000
 XYZ=   -6.5354    4.0179    6.9531 Q=    0.4100 A=    0.0000 R=    0.0000 C=    0.0000
 XYZ=   -6.6794    3.2946    5.4961 Q=    0.4100 A=    0.0000 R=    0.0000 C=    0.0000
 XYZ=    9.8098   -1.3040    0.5331 Q=   -0.8200 A=    0.0000 R=    0.0000 C=    0.0000
 XYZ=    9.9375   -2.1978    0.9631 Q=    0.4100 A=    0.0000 R=    0.0000 C=    0.0000
 XYZ=    9.5147   -0.6418    1.2220 Q=    0.4100 A=    0.0000 R=    0.0000 C=    0.0000
 XYZ=   -0.2057   -9.8909    1.0554 Q=   -0.8200 A=    0.0000 R=    0.0000 C=    0.0000
 XYZ=    0.6459  -10.0335    0.5509 Q=    0.4100 A=    0.0000 R=    0.0000 C=    0.0000
 XYZ=   -0.8586  -10.6099    0.8170 Q=    0.4100 A=    0.0000 R=    0.0000 C=    0.0000
 XYZ=   -2.8574    2.9775  -10.4906 Q=   -0.8200 A=    0.0000 R=    0.0000 C=    0.0000
 XYZ=   -3.1745    2.9930   -9.5424 Q=    0.4100 A=    0.0000 R=    0.0000 C=    0.0000
 XYZ=   -2.4604    2.0826  -10.6946 Q=    0.4100 A=    0.0000 R=    0.0000 C=    0.0000
 XYZ=   -6.2200    6.9872   -1.9904 Q=   -0.8200 A=    0.0000 R=    0.0000 C=    0.0000
 XYZ=   -5.3342    7.0071   -2.4540 Q=    0.4100 A=    0.0000 R=    0.0000 C=    0.0000
 XYZ=   -6.4142    7.8888   -1.6037 Q=    0.4100 A=    0.0000 R=    0.0000 C=    0.0000
 XYZ=    1.9802    3.4793  -10.6964 Q=   -0.8200 A=    0.0000 R=    0.0000 C=    0.0000
 XYZ=    1.8592    3.4723   -9.7038 Q=    0.4100 A=    0.0000 R=    0.0000 C=    0.0000
 XYZ=    2.1695    4.4124  -11.0025 Q=    0.4100 A=    0.0000 R=    0.0000 C=    0.0000
 XYZ=    6.8723    8.3560    0.7511 Q=   -0.8200 A=    0.0000 R=    0.0000 C=    0.0000
 XYZ=    7.2332    9.2295    1.0778 Q=    0.4100 A=    0.0000 R=    0.0000 C=    0.0000
 XYZ=    6.9412    7.6737    1.4790 Q=    0.4100 A=    0.0000 R=    0.0000 C=    0.0000
 XYZ=    2.4234   -5.0465   -8.5469 Q=   -0.8200 A=    0.0000 R=    0.0000 C=    0.0000
 XYZ=    2.0721   -5.9352   -8.2521 Q=    0.4100 A=    0.0000 R=    0.0000 C=    0.0000
 XYZ=    3.3763   -4.9525   -8.2585 Q=    0.4100 A=    0.0000 R=    0.0000 C=    0.0000
 XYZ=    9.7944    4.1947    1.4358 Q=   -0.8200 A=    0.0000 R=    0.0000 C=    0.0000
 XYZ=    9.0291    4.4723    2.0165 Q=    0.4100 A=    0.0000 R=    0.0000 C=    0.0000
 XYZ=   10.5341    4.8627    1.5174 Q=    0.4100 A=    0.0000 R=    0.0000 C=    0.0000
 XYZ=   -2.3479    0.6806  -11.0912 Q=   -0.8200 A=    0.0000 R=    0.0000 C=    0.0000
 XYZ=   -2.0081   -0.0794  -10.5372 Q=    0.4100 A=    0.0000 R=    0.0000 C=    0.0000
 XYZ=   -3.3232    0.5519  -11.2710 Q=    0.4100 A=    0.0000 R=    0.0000 C=    0.0000
 XYZ=    2.8009    1.2988  -10.4269 Q=   -0.8200 A=    0.0000 R=    0.0000 C=    0.0000
 XYZ=    2.5643    2.2476  -10.6364 Q=    0.4100 A=    0.0000 R=    0.0000 C=    0.0000
 XYZ=    1.9726    0.7386  -10.4379 Q=    0.4100 A=    0.0000 R=    0.0000 C=    0.0000
 XYZ=   -6.4770    4.5725   -7.1766 Q=   -0.8200 A=    0.0000 R=    0.0000 C=    0.0000
 XYZ=   -6.1844    5.3060   -7.7902 Q=    0.4100 A=    0.0000 R=    0.0000 C=    0.0000
 XYZ=   -5.9992    3.7272   -7.4160 Q=    0.4100 A=    0.0000 R=    0.0000 C=    0.0000
 XYZ=    5.4895    2.4368    8.2715 Q=   -0.8200 A=    0.0000 R=    0.0000 C=    0.0000
 XYZ=    6.1965    2.9396    7.7741 Q=    0.4100 A=    0.0000 R=    0.0000 C=    0.0000
 XYZ=    5.0254    3.0546    8.9063 Q=    0.4100 A=    0.0000 R=    0.0000 C=    0.0000
 XYZ=   10.4731    1.9129    1.5390 Q=   -0.8200 A=    0.0000 R=    0.0000 C=    0.0000
 XYZ=    9.7448    1.3139    1.8716 Q=    0.4100 A=    0.0000 R=    0.0000 C=    0.0000
 XYZ=   10.1448    2.8573    1.5190 Q=    0.4100 A=    0.0000 R=    0.0000 C=    0.0000
 XYZ=    2.2542    3.6766   10.3168 Q=   -0.8200 A=    0.0000 R=    0.0000 C=    0.0000
 XYZ=    3.2203    3.8877   10.1686 Q=    0.4100 A=    0.0000 R=    0.0000 C=    0.0000
 XYZ=    1.8566    3.3228    9.4702 Q=    0.4100 A=    0.0000 R=    0.0000 C=    0.0000
 XYZ=    5.9449    2.3995   -8.1416 Q=   -0.8200 A=    0.0000 R=    0.0000 C=    0.0000
 XYZ=    6.3614    3.0919   -7.5523 Q=    0.4100 A=    0.0000 R=    0.0000 C=    0.0000
 XYZ=    6.4445    1.5383   -8.0483 Q=    0.4100 A=    0.0000 R=    0.0000 C=    0.0000
 XYZ=   -9.6492   -6.2019    0.2008 Q=   -0.8200 A=    0.0000 R=    0.0000 C=    0.0000
 XYZ=   -9.5384   -5.8333   -0.7222 Q=    0.4100 A=    0.0000 R=    0.0000 C=    0.0000
 XYZ=  -10.5916   -6.0619    0.5047 Q=    0.4100 A=    0.0000 R=    0.0000 C=    0.0000
 XYZ=   -3.5274    5.4730   -8.1872 Q=   -0.8200 A=    0.0000 R=    0.0000 C=    0.0000
 XYZ=   -4.3842    5.6531   -8.6703 Q=    0.4100 A=    0.0000 R=    0.0000 C=    0.0000
 XYZ=   -2.7566    5.7482   -8.7618 Q=    0.4100 A=    0.0000 R=    0.0000 C=    0.0000
 XYZ=   -8.1351    5.5790   -2.6803 Q=   -0.8200 A=    0.0000 R=    0.0000 C=    0.0000
 XYZ=   -7.3780    6.1455   -2.3545 Q=    0.4100 A=    0.0000 R=    0.0000 C=    0.0000
 XYZ=   -7.8559    4.6188   -2.6826 Q=    0.4100 A=    0.0000 R=    0.0000 C=    0.0000
 XYZ=   -1.1278    2.8578    9.6362 Q=   -0.8200 A=    0.0000 R=    0.0000 C=    0.0000
 XYZ=   -1.5750    1.9666    9.7121 Q=    0.4100 A=    0.0000 R=    0.0000 C=    0.0000
 XYZ=   -0.7804    3.1337   10.5324 Q=    0.4100 A=    0.0000 R=    0.0000 C=    0.0000
 XYZ=   10.1935   -0.9418   -3.3732 Q=   -0.8200 A=    0.0000 R=    0.0000 C=    0.0000
 XYZ=    9.6988   -0.8952   -2.5053 Q=    0.4100 A=    0.0000 R=    0.0000 C=    0.0000
 XYZ=   11.0284   -1.4789   -3.2525 Q=    0.4100 A=    0.0000 R=    0.0000 C=    0.0000
 XYZ=   -8.6013   -8.3542    0.8266 Q=   -0.8200 A=    0.0000 R=    0.0000 C=    0.0000
 XYZ=   -9.2005   -7.5882    0.5937 Q=    0.4100 A=    0.0000 R=    0.0000 C=    0.0000
 XYZ=   -7.7033   -8.0054    1.0946 Q=    0.4100 A=    0.0000 R=    0.0000 C=    0.0000
 XYZ=   -3.0937   -7.0611   -8.0773 Q=   -0.8200 A=    0.0000 R=    0.0000 C=    0.0000
 XYZ=   -2.5054   -6.4789   -8.6386 Q=    0.4100 A=    0.0000 R=    0.0000 C=    0.0000
 XYZ=   -2.7984   -8.0128   -8.1612 Q=    0.4100 A=    0.0000 R=    0.0000 C=    0.0000
 XYZ=    7.7940    7.6460   -1.3061 Q=   -0.8200 A=    0.0000 R=    0.0000 C=    0.0000
 XYZ=    7.3522    8.0417   -2.1113 Q=    0.4100 A=    0.0000 R=    0.0000 C=    0.0000
 XYZ=    7.3613    8.0041   -0.4787 Q=    0.4100 A=    0.0000 R=    0.0000 C=    0.0000
 XYZ=   -9.4346   -5.2135    3.9943 Q=   -0.8200 A=    0.0000 R=    0.0000 C=    0.0000
 XYZ=   -8.9038   -5.1467    3.1494 Q=    0.4100 A=    0.0000 R=    0.0000 C=    0.0000
 XYZ=   -9.8301   -6.1290    4.0679 Q=    0.4100 A=    0.0000 R=    0.0000 C=    0.0000
 XYZ=   -4.6068    7.2186    5.5744 Q=   -0.8200 A=    0.0000 R=    0.0000 C=    0.0000
 XYZ=   -5.3993    7.6510    6.0047 Q=    0.4100 A=    0.0000 R=    0.0000 C=    0.0000
 XYZ=   -4.9178    6.5333    4.9159 Q=    0.4100 A=    0.0000 R=    0.0000 C=    0.0000
 XYZ=  -10.0279    2.4302    2.6362 Q=   -0.8200 A=    0.0000 R=    0.0000 C=    0.0000
 XYZ=   -9.1608    2.1144    3.0217 Q=    0.4100 A=    0.0000 R=    0.0000 C=    0.0000
 XYZ=  -10.3918    1.7327    2.0188 Q=    0.4100 A=    0.0000 R=    0.0000 C=    0.0000
 XYZ=   -4.5203   -9.5686    4.2214 Q=   -0.8200 A=    0.0000 R=    0.0000 C=    0.0000
 XYZ=   -5.0076  -10.3278    3.7899 Q=    0.4100 A=    0.0000 R=    0.0000 C=    0.0000
 XYZ=   -3.7241   -9.3257    3.6672 Q=    0.4100 A=    0.0000 R=    0.0000 C=    0.0000
 XYZ=    1.3169   -4.1608  -10.2700 Q=   -0.8200 A=    0.0000 R=    0.0000 C=    0.0000
 XYZ=    1.7057   -3.2900  -10.5711 Q=    0.4100 A=    0.0000 R=    0.0000 C=    0.0000
 XYZ=    1.8426   -4.5100   -9.4943 Q=    0.4100 A=    0.0000 R=    0.0000 C=    0.0000
 XYZ=    7.3737   -6.5575    2.3632 Q=   -0.8200 A=    0.0000 R=    0.0000 C=    0.0000
 XYZ=    7.9156   -5.7178    2.3250 Q=    0.4100 A=    0.0000 R=    0.0000 C=    0.0000
 XYZ=    6.4089   -6.3260    2.4877 Q=    0.4100 A=    0.0000 R=    0.0000 C=    0.0000
 XYZ=   -7.5610   -1.3015   -7.9748 Q=   -0.8200 A=    0.0000 R=    0.0000 C=    0.0000
 XYZ=   -8.4894   -0.9697   -8.1425 Q=    0.4100 A=    0.0000 R=    0.0000 C=    0.0000
 XYZ=   -7.3091   -1.9596   -8.6844 Q=    0.4100 A=    0.0000 R=    0.0000 C=    0.0000
 XYZ=    4.1836   -6.7785   -6.9838 Q=   -0.8200 A=    0.0000 R=    0.0000 C=    0.0000
 XYZ=    4.3192   -5.8273   -7.2610 Q=    0.4100 A=    0.0000 R=    0.0000 C=    0.0000
 XYZ=    4.9130   -7.0498   -6.3557 Q=    0.4100 A=    0.0000 R=    0.0000 C=    0.0000
 XYZ=   -6.6609    0.8535   -8.8580 Q=   -0.8200 A=    0.0000 R=    0.0000 C=    0.0000
 XYZ=   -7.4538    1.3526   -8.5085 Q=    0.4100 A=    0.0000 R=    0.0000 C=    0.0000
 XYZ=   -6.6929   -0.0920   -8.5341 Q=    0.4100 A=    0.0000 R=    0.0000 C=    0.0000
 XYZ=    1.9440   -7.3406   -7.3954 Q=   -0.8200 A=    0.0000 R=    0.0000 C=    0.0000
 XYZ=    1.4713   -7.9837   -6.7929 Q=    0.4100 A=    0.0000 R=    0.0000 C=    0.0000
 XYZ=    2.8889   -7.2287   -7.0878 Q=    0.4100 A=    0.0000 R=    0.0000 C=    0.0000
 XYZ=   -3.7100   -3.8090  -10.0892 Q=   -0.8200 A=    0.0000 R=    0.0000 C=    0.0000
 XYZ=   -2.9845   -4.3795   -9.7042 Q=    0.4100 A=    0.0000 R=    0.0000 C=    0.0000
 XYZ=   -3.6182   -3.7797  -11.0845 Q=    0.4100 A=    0.0000 R=    0.0000 C=    0.0000
 XYZ=   -3.1513   10.2274   -1.7459 Q=   -0.8200 A=    0.0000 R=    0.0000 C=    0.0000
 XYZ=   -3.8086   10.4729   -1.0333 Q=    0.4100 A=    0.0000 R=    0.0000 C=    0.0000
 XYZ=   -2.3940    9.7165   -1.3390 Q=    0.4100 A=    0.0000 R=    0.0000 C=    0.0000
 XYZ=   10.9408    3.0972   -2.2833 Q=   -0.8200 A=    0.0000 R=    0.0000 C=    0.0000
 XYZ=   10.1231    3.4646   -1.8402 Q=    0.4100 A=    0.0000 R=    0.0000 C=    0.0000
 XYZ=   11.5344    2.6806   -1.5947 Q=    0.4100 A=    0.0000 R=    0.0000 C=    0.0000
 XYZ=    5.7891    5.5640    7.1094 Q=   -0.8200 A=    0.0000 R=    0.0000 C=    0.0000
 XYZ=    6.3092    6.4050    6.9596 Q=    0.4100 A=    0.0000 R=    0.0000 C=    0.0000
 XYZ=    6.3869    4.7739    6.9736 Q=    0.4100 A=    0.0000 R=    0.0000 C=    0.0000
 XYZ=    7.2711    3.8563    7.0480 Q=   -0.8200 A=    0.0000 R=    0.0000 C=    0.0000
 XYZ=    7.7420    3.6521    6.1897 Q=    0.4100 A=    0.0000 R=    0.0000 C=    0.0000
 XYZ=    7.9440    4.0893    7.7501 Q=    0.4100 A=    0.0000 R=    0.0000 C=    0.0000
 XYZ=    9.1208   -1.2516   -5.4598 Q=   -0.8200 A=    0.0000 R=    0.0000 C=    0.0000
 XYZ=    9.6177   -1.1148   -4.6029 Q=    0.4100 A=    0.0000 R=    0.0000 C=    0.0000
 XYZ=    8.4461   -1.9802   -5.3411 Q=    0.4100 A=    0.0000 R=    0.0000 C=    0.0000
 XYZ=    0.2706    6.1795  -10.1360 Q=   -0.8200 A=    0.0000 R=    0.0000 C=    0.0000
 XYZ=   -0.2571    5.5769  -10.7348 Q=    0.4100 A=    0.0000 R=    0.0000 C=    0.0000
 XYZ=    0.2246    5.8395   -9.1967 Q=    0.4100 A=    0.0000 R=    0.0000 C=    0.0000
 XYZ=   -0.7604   -3.4216  -10.7614 Q=   -0.8200 A=    0.0000 R=    0.0000 C=    0.0000
 XYZ=    0.1763   -3.6441  -10.4908 Q=    0.4100 A=    0.0000 R=    0.0000 C=    0.0000
 XYZ=   -0.8763   -3.6000  -11.7385 Q=    0.4100 A=    0.0000 R=    0.0000 C=    0.0000
 XYZ=   -0.2583    0.8169  -11.8728 Q=   -0.8200 A=    0.0000 R=    0.0000 C=    0.0000
 XYZ=    0.3295    0.2524  -11.2933 Q=    0.4100 A=    0.0000 R=    0.0000 C=    0.0000
 XYZ=   -1.1717    0.8704  -11.4693 Q=    0.4100 A=    0.0000 R=    0.0000 C=    0.0000
 XYZ=   -3.6127    6.3667    7.9436 Q=   -0.8200 A=    0.0000 R=    0.0000 C=    0.0000
 XYZ=   -3.7384    6.5649    6.9715 Q=    0.4100 A=    0.0000 R=    0.0000 C=    0.0000
 XYZ=   -2.7746    5.8359    8.0698 Q=    0.4100 A=    0.0000 R=    0.0000 C=    0.0000
 XYZ=    7.6637    6.5304   -5.2094 Q=   -0.8200 A=    0.0000 R=    0.0000 C=    0.0000
 XYZ=    8.2837    6.0327   -4.6029 Q=    0.4100 A=    0.0000 R=    0.0000 C=    0.0000
 XYZ=    7.8881    6.3200   -6.1610 Q=    0.4100 A=    0.0000 R=    0.0000 C=    0.0000
 XYZ=   -2.2209    9.3732    2.8492 Q=   -0.8200 A=    0.0000 R=    0.0000 C=    0.0000
 XYZ=   -2.6900    9.1470    3.7029 Q=    0.4100 A=    0.0000 R=    0.0000 C=    0.0000
 XYZ=   -2.6289   10.1957    2.4527 Q=    0.4100 A=    0.0000 R=    0.0000 C=    0.0000
 XYZ=   -9.5827    2.7278   -3.9256 Q=   -0.8200 A=    0.0000 R=    0.0000 C=    0.0000
 XYZ=   -9.9766    2.8341   -3.0126 Q=    0.4100 A=    0.0000 R=    0.0000 C=    0.0000
 XYZ=  -10.2589    2.3122   -4.5339 Q=    0.4100 A=    0.0000 R=    0.0000 C=    0.0000
 XYZ=   -3.2688    9.6203   -3.8458 Q=   -0.8200 A=    0.0000 R=    0.0000 C=    0.0000
 XYZ=   -3.1662    9.8868   -2.8874 Q=    0.4100 A=    0.0000 R=    0.0000 C=    0.0000
 XYZ=   -3.6355    8.6913   -3.8960 Q=    0.4100 A=    0.0000 R=    0.0000 C=    0.0000
 XYZ=   10.1446    1.3510   -3.8608 Q=   -0.8200 A=    0.0000 R=    0.0000 C=    0.0000
 XYZ=   10.6581    1.8031   -3.1315 Q=    0.4100 A=    0.0000 R=    0.0000 C=    0.0000
 XYZ=   10.1770    0.3606   -3.7267 Q=    0.4100 A=    0.0000 R=    0.0000 C=    0.0000
 XYZ=   -6.8212   -2.8857   -9.8529 Q=   -0.8200 A=    0.0000 R=    0.0000 C=    0.0000
 XYZ=   -6.2780   -3.4045   -9.1928 Q=    0.4100 A=    0.0000 R=    0.0000 C=    0.0000
 XYZ=   -7.4996   -3.4883  -10.2732 Q=    0.4100 A=    0.0000 R=    0.0000 C=    0.0000
 XYZ=    6.8532    0.6928    8.9327 Q=   -0.8200 A=    0.0000 R=    0.0000 C=    0.0000
 XYZ=    6.2730    1.4936    8.7834 Q=    0.4100 A=    0.0000 R=    0.0000 C=    0.0000
 XYZ=    7.7856    0.9904    9.1379 Q=    0.4100 A=    0.0000 R=    0.0000 C=    0.0000
 XYZ=    6.1836   -7.1478   -0.9987 Q=   -0.8200 A=    0.0000 R=    0.0000 C=    0.0000
 XYZ=    6.7538   -7.7665   -0.4583 Q=    0.4100 A=    0.0000 R=    0.0000 C=    0.0000
 XYZ=    6.6913   -6.8461   -1.8057 Q=    0.4100 A=    0.0000 R=    0.0000 C=    0.0000
 XYZ=   -1.7659  -11.6614   -0.0545 Q=   -0.8200 A=    0.0000 R=    0.0000 C=    0.0000
 XYZ=   -2.2843  -11.1484   -0.7387 Q=    0.4100 A=    0.0000 R=    0.0000 C=    0.0000
 XYZ=   -1.1217  -12.2730   -0.5141 Q=    0.4100 A=    0.0000 R=    0.0000 C=    0.0000
 XYZ=  -11.8754    0.5422   -2.2894 Q=   -0.8200 A=    0.0000 R=    0.0000 C=    0.0000
 XYZ=  -12.3495    1.4122   -2.4248 Q=    0.4100 A=    0.0000 R=    0.0000 C=    0.0000
 XYZ=  -10.8924    0.6751   -2.4158 Q=    0.4100 A=    0.0000 R=    0.0000 C=    0.0000
 XYZ=   -7.7589   -6.3741   -7.6638 Q=   -0.8200 A=    0.0000 R=    0.0000 C=    0.0000
 XYZ=   -6.7735   -6.5439   -7.6803 Q=    0.4100 A=    0.0000 R=    0.0000 C=    0.0000
 XYZ=   -7.9410   -5.5140   -7.1872 Q=    0.4100 A=    0.0000 R=    0.0000 C=    0.0000
 XYZ=   -9.3167   -7.2533   -3.3153 Q=   -0.8200 A=    0.0000 R=    0.0000 C=    0.0000
 XYZ=  -10.1633   -7.6439   -3.6768 Q=    0.4100 A=    0.0000 R=    0.0000 C=    0.0000
 XYZ=   -8.5717   -7.9110   -3.4273 Q=    0.4100 A=    0.0000 R=    0.0000 C=    0.0000
 XYZ=    7.7616    7.9084    4.6146 Q=   -0.8200 A=    0.0000 R=    0.0000 C=    0.0000
 XYZ=    8.5890    7.3795    4.8035 Q=    0.4100 A=    0.0000 R=    0.0000 C=    0.0000
 XYZ=    7.2195    7.4410    3.9162 Q=    0.4100 A=    0.0000 R=    0.0000 C=    0.0000
 XYZ=   -0.4563   -2.0822   10.4748 Q=   -0.8200 A=    0.0000 R=    0.0000 C=    0.0000
 XYZ=    0.0599   -2.8717   10.1427 Q=    0.4100 A=    0.0000 R=    0.0000 C=    0.0000
 XYZ=   -1.3596   -2.3804   10.7830 Q=    0.4100 A=    0.0000 R=    0.0000 C=    0.0000
 XYZ=    2.4879   -2.3739  -10.9862 Q=   -0.8200 A=    0.0000 R=    0.0000 C=    0.0000
 XYZ=    3.3728   -2.0773  -10.6268 Q=    0.4100 A=    0.0000 R=    0.0000 C=    0.0000
 XYZ=    2.4748   -2.2555  -11.9791 Q=    0.4100 A=    0.0000 R=    0.0000 C=    0.0000
 XYZ=   -2.7404  -11.5131    2.2322 Q=   -0.8200 A=    0.0000 R=    0.0000 C=    0.0000
 XYZ=   -2.5961  -10.5534    2.4734 Q=    0.4100 A=    0.0000 R=    0.0000 C=    0.0000
 XYZ=   -2.3107  -11.7031    1.3494 Q=    0.4100 A=    0.0000 R=    0.0000 C=    0.0000
 XYZ=   -4.0461   -4.7223    9.1672 Q=   -0.8200 A=    0.0000 R=    0.0000 C=    0.0000
 XYZ=   -4.7532   -5.3989    8.9618 Q=    0.4100 A=    0.0000 R=    0.0000 C=    0.0000
 XYZ=   -3.6727   -4.8966   10.0784 Q=    0.4100 A=    0.0000 R=    0.0000 C=    0.0000
 XYZ=    0.5141    9.6559    5.9077 Q=   -0.8200 A=    0.0000 R=    0.0000 C=    0.0000
 XYZ=    1.3681    9.1869    6.1332 Q=    0.4100 A=    0.0000 R=    0.0000 C=    0.0000
 XYZ=   -0.2210    8.9841    5.8163 Q=    0.4100 A=    0.0000 R=    0.0000 C=    0.0000
 XYZ=   -7.6402   -8.8751   -3.6679 Q=   -0.8200 A=    0.0000 R=    0.0000 C=    0.0000
 XYZ=   -7.4101   -9.6264   -3.0493 Q=    0.4100 A=    0.0000 R=    0.0000 C=    0.0000
 XYZ=   -8.1392   -9.2339   -4.4568 Q=    0.4100 A=    0.0000 R=    0.0000 C=    0.0000
 XYZ=    1.0883   11.8828    0.2422 Q=   -0.8200 A=    0.0000 R=    0.0000 C=    0.0000
 XYZ=    1.9488   12.3830    0.1454 Q=    0.4100 A=    0.0000 R=    0.0000 C=    0.0000
 XYZ=    1.0870   11.0987   -0.3785 Q=    0.4100 A=    0.0000 R=    0.0000 C=    0.0000
 XYZ=    0.1240   10.1848    3.6221 Q=   -0.8200 A=    0.0000 R=    0.0000 C=    0.0000
 XYZ=   -0.8605   10.1231    3.4581 Q=    0.4100 A=    0.0000 R=    0.0000 C=    0.0000
 XYZ=    0.3272    9.8746    4.5509 Q=    0.4100 A=    0.0000 R=    0.0000 C=    0.0000
 XYZ=    7.2418   -3.7109   -7.1854 Q=   -0.8200 A=    0.0000 R=    0.0000 C=    0.0000
 XYZ=    8.0097   -4.1906   -6.7606 Q=    0.4100 A=    0.0000 R=    0.0000 C=    0.0000
 XYZ=    6.9092   -4.2400   -7.9661 Q=    0.4100 A=    0.0000 R=    0.0000 C=    0.0000
 XYZ=   -1.1978   -6.7361    9.9521 Q=   -0.8200 A=    0.0000 R=    0.0000 C=    0.0000
 XYZ=   -1.4073   -6.2878    9.0830 Q=    0.4100 A=    0.0000 R=    0.0000 C=    0.0000
 XYZ=   -0.3146   -6.4112   10.2903 Q=    0.4100 A=    0.0000 R=    0.0000 C=    0.0000
 XYZ=   -2.9939    9.0491    4.9822 Q=   -0.8200 A=    0.0000 R=    0.0000 C=    0.0000
 XYZ=   -3.6612    8.3591    5.2627 Q=    0.4100 A=    0.0000 R=    0.0000 C=    0.0000
 XYZ=   -3.4013    9.9588    5.0628 Q=    0.4100 A=    0.0000 R=    0.0000 C=    0.0000
 XYZ=    7.5343   -1.8354   -8.7040 Q=   -0.8200 A=    0.0000 R=    0.0000 C=    0.0000
 XYZ=    7.4589   -1.0335   -8.1113 Q=    0.4100 A=    0.0000 R=    0.0000 C=    0.0000
 XYZ=    7.2235   -2.6465   -8.2084 Q=    0.4100 A=    0.0000 R=    0.0000 C=    0.0000
 XYZ=   -2.8398  -11.7745   -3.5815 Q=   -0.8200 A=    0.0000 R=    0.0000 C=    0.0000
 XYZ=   -2.2361  -11.0772   -3.9681 Q=    0.4100 A=    0.0000 R=    0.0000 C=    0.0000
 XYZ=   -3.2189  -12.3332   -4.3191 Q=    0.4100 A=    0.0000 R=    0.0000 C=    0.0000
 XYZ=   11.9045    2.0755   -0.4212 Q=   -0.8200 A=    0.0000 R=    0.0000 C=    0.0000
 XYZ=   12.6841    1.5340   -0.1063 Q=    0.4100 A=    0.0000 R=    0.0000 C=    0.0000
 XYZ=   11.1621    2.0098    0.2454 Q=    0.4100 A=    0.0000 R=    0.0000 C=    0.0000
 XYZ=   -7.5173    6.8189    3.2803 Q=   -0.8200 A=    0.0000 R=    0.0000 C=    0.0000
 XYZ=   -7.6731    6.8245    4.2681 Q=    0.4100 A=    0.0000 R=    0.0000 C=    0.0000
 XYZ=   -7.6837    5.9002    2.9219 Q=    0.4100 A=    0.0000 R=    0.0000 C=    0.0000
 XYZ=   -7.4448   -5.2579    7.9372 Q=   -0.8200 A=    0.0000 R=    0.0000 C=    0.0000
 XYZ=   -7.7972   -4.9772    7.0444 Q=    0.4100 A=    0.0000 R=    0.0000 C=    0.0000
 XYZ=   -6.8479   -4.5421    8.2999 Q=    0.4100 A=    0.0000 R=    0.0000 C=    0.0000
 XYZ=  -10.6351   -3.0979    4.5513 Q=   -0.8200 A=    0.0000 R=    0.0000 C=    0.0000
 XYZ=  -10.0707   -3.8612    4.2369 Q=    0.4100 A=    0.0000 R=    0.0000 C=    0.0000
 XYZ=  -11.2339   -3.4082    5.2896 Q=    0.4100 A=    0.0000 R=    0.0000 C=    0.0000
 XYZ=   -1.2044    4.7112  -11.2728 Q=   -0.8200 A=    0.0000 R=    0.0000 C=    0.0000
 XYZ=   -1.9183    4.1011  -10.9291 Q=    0.4100 A=    0.0000 R=    0.0000 C=    0.0000
 XYZ=   -0.5597    4.1887  -11.8308 Q=    0.4100 A=    0.0000 R=    0.0000 C=    0.0000
 XYZ=    5.1146   -0.6089   10.1569 Q=   -0.8200 A=    0.0000 R=    0.0000 C=    0.0000
 XYZ=    5.8039   -0.0090    9.7507 Q=    0.4100 A=    0.0000 R=    0.0000 C=    0.0000
 XYZ=    5.4973   -1.5254   10.2735 Q=    0.4100 A=    0.0000 R=    0.0000 C=    0.0000
 XYZ=    4.9513    6.3323    9.0211 Q=   -0.8200 A=    0.0000 R=    0.0000 C=    0.0000
 XYZ=    5.6868    6.6947    9.5936 Q=    0.4100 A=    0.0000 R=    0.0000 C=    0.0000
 XYZ=    5.3311    6.0142    8.1524 Q=    0.4100 A=    0.0000 R=    0.0000 C=    0.0000
 XYZ=    4.5531    4.0019    9.7975 Q=   -0.8200 A=    0.0000 R=    0.0000 C=    0.0000
 XYZ=    5.1080    3.8154   10.6082 Q=    0.4100 A=    0.0000 R=    0.0000 C=    0.0000
 XYZ=    4.7866    4.9038    9.4340 Q=    0.4100 A=    0.0000 R=    0.0000 C=    0.0000
 XYZ=   -9.3212    4.9360   -4.5790 Q=   -0.8200 A=    0.0000 R=    0.0000 C=    0.0000
 XYZ=   -8.7794    5.3765   -3.8631 Q=    0.4100 A=    0.0000 R=    0.0000 C=    0.0000
 XYZ=   -9.4471    3.9696   -4.3547 Q=    0.4100 A=    0.0000 R=    0.0000 C=    0.0000
 XYZ=  -12.1776   -1.0444    1.5262 Q=   -0.8200 A=    0.0000 R=    0.0000 C=    0.0000
 XYZ=  -11.4077   -0.4149    1.6307 Q=    0.4100 A=    0.0000 R=    0.0000 C=    0.0000
 XYZ=  -11.9781   -1.8978    2.0077 Q=    0.4100 A=    0.0000 R=    0.0000 C=    0.0000
 XYZ=  -10.6361    3.1163   -1.8085 Q=   -0.8200 A=    0.0000 R=    0.0000 C=    0.0000
 XYZ=  -11.6233    2.9577   -1.7897 Q=    0.4100 A=    0.0000 R=    0.0000 C=    0.0000
 XYZ=  -10.4496    4.0797   -1.6158 Q=    0.4100 A=    0.0000 R=    0.0000 C=    0.0000
 XYZ=   -6.4130    7.8232    1.4429 Q=   -0.8200 A=    0.0000 R=    0.0000 C=    0.0000
 XYZ=   -7.0318    7.4072    2.1094 Q=    0.4100 A=    0.0000 R=    0.0000 C=    0.0000
 XYZ=   -5.7262    8.3700    1.9217 Q=    0.4100 A=    0.0000 R=    0.0000 C=    0.0000
 XYZ=   -4.5886    0.4171  -11.1176 Q=   -0.8200 A=    0.0000 R=    0.0000 C=    0.0000
 XYZ=   -5.2095    1.1997  -11.1639 Q=    0.4100 A=    0.0000 R=    0.0000 C=    0.0000
 XYZ=   -5.0976   -0.4235  -11.3025 Q=    0.4100 A=    0.0000 R=    0.0000 C=    0.0000
 XYZ=   10.1859    7.7994   -1.6445 Q=   -0.8200 A=    0.0000 R=    0.0000 C=    0.0000
 XYZ=   10.2886    8.0929   -2.5949 Q=    0.4100 A=    0.0000 R=    0.0000 C=    0.0000
 XYZ=    9.2142    7.7016   -1.4291 Q=    0.4100 A=    0.0000 R=    0.0000 C=    0.0000
 XYZ=   10.6169   -3.7689    2.6741 Q=   -0.8200 A=    0.0000 R=    0.0000 C=    0.0000
 XYZ=    9.6557   -4.0425    2.6364 Q=    0.4100 A=    0.0000 R=    0.0000 C=    0.0000
 XYZ=   11.1252   -4.2365    1.9509 Q=    0.4100 A=    0.0000 R=    0.0000 C=    0.0000
 XYZ=    4.0570   -0.3607  -11.8116 Q=   -0.8200 A=    0.0000 R=    0.0000 C=    0.0000
 XYZ=    3.6327    0.4907  -11.5034 Q=    0.4100 A=    0.0000 R=    0.0000 C=    0.0000
 XYZ=    4.4678   -0.8304  -11.0301 Q=    0.4100 A=    0.0000 R=    0.0000 C=    0.0000
 XYZ=   -8.4097    1.7444    8.0921 Q=   -0.8200 A=    0.0000 R=    0.0000 C=    0.0000
 XYZ=   -8.5236    1.0427    7.3888 Q=    0.4100 A=    0.0000 R=    0.0000 C=    0.0000
 XYZ=   -7.6829    2.3747    7.8194 Q=    0.4100 A=    0.0000 R=    0.0000 C=    0.0000
 XYZ=   -8.7351    3.9761   -6.6789 Q=   -0.8200 A=    0.0000 R=    0.0000 C=    0.0000
 XYZ=   -9.1078    4.3605   -5.8343 Q=    0.4100 A=    0.0000 R=    0.0000 C=    0.0000
 XYZ=   -7.9427    4.5131   -6.9683 Q=    0.4100 A=    0.0000 R=    0.0000 C=    0.0000
 XYZ=   -8.0893   -9.2620    4.3235 Q=   -0.8200 A=    0.0000 R=    0.0000 C=    0.0000
 XYZ=   -7.7252  -10.0364    4.8410 Q=    0.4100 A=    0.0000 R=    0.0000 C=    0.0000
 XYZ=   -7.3718   -8.5762    4.2010 Q=    0.4100 A=    0.0000 R=    0.0000 C=    0.0000
 XYZ=    1.2192    5.8401   10.5136 Q=   -0.8200 A=    0.0000 R=    0.0000 C=    0.0000
 XYZ=    0.5043    5.9193   11.2084 Q=    0.4100 A=    0.0000 R=    0.0000 C=    0.0000
 XYZ=    1.5200    4.8884   10.4518 Q=    0.4100 A=    0.0000 R=    0.0000 C=    0.0000
 XYZ=   -6.2869    2.1433  -10.6791 Q=   -0.8200 A=    0.0000 R=    0.0000 C=    0.0000
 XYZ=   -6.5744    1.6010   -9.8895 Q=    0.4100 A=    0.0000 R=    0.0000 C=    0.0000
 XYZ=   -7.0658    2.2797  -11.2912 Q=    0.4100 A=    0.0000 R=    0.0000 C=    0.0000
 XYZ=   -4.0923   -9.7044    6.6650 Q=   -0.8200 A=    0.0000 R=    0.0000 C=    0.0000
 XYZ=   -4.1697   -9.7241    5.6682 Q=    0.4100 A=    0.0000 R=    0.0000 C=    0.0000
 XYZ=   -4.1818   -8.7621    6.9877 Q=    0.4100 A=    0.0000 R=    0.0000 C=    0.0000
 XYZ=   -4.9736    3.9352  -10.9647 Q=   -0.8200 A=    0.0000 R=    0.0000 C=    0.0000
 XYZ=   -5.6224    3.1780  -10.8887 Q=    0.4100 A=    0.0000 R=    0.0000 C=    0.0000
 XYZ=   -4.0431    3.5907  -10.8403 Q=    0.4100 A=    0.0000 R=    0.0000 C=    0.0000
 XYZ=    0.3857    3.0501  -12.3378 Q=   -0.8200 A=    0.0000 R=    0.0000 C=    0.0000
 XYZ=    1.1393    3.2444  -11.7098 Q=    0.4100 A=    0.0000 R=    0.0000 C=    0.0000
 XYZ=    0.1212    2.0894  -12.2540 Q=    0.4100 A=    0.0000 R=    0.0000 C=    0.0000
 XYZ=   -2.2090   -9.3485   -7.9420 Q=   -0.8200 A=    0.0000 R=    0.0000 C=    0.0000
 XYZ=   -1.5323   -9.4825   -8.6660 Q=    0.4100 A=    0.0000 R=    0.0000 C=    0.0000
 XYZ=   -2.5861  -10.2340   -7.6702 Q=    0.4100 A=    0.0000 R=    0.0000 C=    0.0000
 XYZ=   -2.5274    6.0903   10.5498 Q=   -0.8200 A=    0.0000 R=    0.0000 C=    0.0000
 XYZ=   -2.6540    7.0322   10.2387 Q=    0.4100 A=    0.0000 R=    0.0000 C=    0.0000
 XYZ=   -2.2406    5.5206    9.7795 Q=    0.4100 A=    0.0000 R=    0.0000 C=    0.0000
 XYZ=    8.1273    9.0578   -4.6132 Q=   -0.8200 A=    0.0000 R=    0.0000 C=    0.0000
 XYZ=    7.6133    8.2831   -4.9813 Q=    0.4100 A=    0.0000 R=    0.0000 C=    0.0000
 XYZ=    9.0613    8.7686   -4.4033 Q=    0.4100 A=    0.0000 R=    0.0000 C=    0.0000
 XYZ=   -6.9618  -10.5589   -2.3207 Q=   -0.8200 A=    0.0000 R=    0.0000 C=    0.0000
 XYZ=   -6.8440  -11.5250   -2.5503 Q=    0.4100 A=    0.0000 R=    0.0000 C=    0.0000
 XYZ=   -7.5721  -10.4755   -1.5329 Q=    0.4100 A=    0.0000 R=    0.0000 C=    0.0000
 XYZ=   -9.9765    4.5301    1.6047 Q=   -0.8200 A=    0.0000 R=    0.0000 C=    0.0000
 XYZ=  -10.5804    4.5895    0.8098 Q=    0.4100 A=    0.0000 R=    0.0000 C=    0.0000
 XYZ=  -10.1911    3.7036    2.1252 Q=    0.4100 A=    0.0000 R=    0.0000 C=    0.0000
 XYZ=   12.3238   -1.4395   -0.0612 Q=   -0.8200 A=    0.0000 R=    0.0000 C=    0.0000
 XYZ=   12.7823   -0.5816    0.1711 Q=    0.4100 A=    0.0000 R=    0.0000 C=    0.0000
 XYZ=   11.3364   -1.3318    0.0551 Q=    0.4100 A=    0.0000 R=    0.0000 C=    0.0000
 XYZ=   -1.5706   10.8244   -4.6992 Q=   -0.8200 A=    0.0000 R=    0.0000 C=    0.0000
 XYZ=   -2.3636   10.3681   -4.2956 Q=    0.4100 A=    0.0000 R=    0.0000 C=    0.0000
 XYZ=   -1.5419   11.7759   -4.3928 Q=    0.4100 A=    0.0000 R=    0.0000 C=    0.0000
 XYZ=  -11.7809   -3.1667    2.5614 Q=   -0.8200 A=    0.0000 R=    0.0000 C=    0.0000
 XYZ=  -11.3264   -3.1074    3.4502 Q=    0.4100 A=    0.0000 R=    0.0000 C=    0.0000
 XYZ=  -11.4306   -3.9579    2.0601 Q=    0.4100 A=    0.0000 R=    0.0000 C=    0.0000
 XYZ=   -8.3840  -10.5379   -0.4781 Q=   -0.8200 A=    0.0000 R=    0.0000 C=    0.0000
 XYZ=   -8.3025   -9.7073    0.0729 Q=    0.4100 A=    0.0000 R=    0.0000 C=    0.0000
 XYZ=   -9.3148  -10.8962   -0.4053 Q=    0.4100 A=    0.0000 R=    0.0000 C=    0.0000
 XYZ=    0.5622   -0.6904   12.3793 Q=   -0.8200 A=    0.0000 R=    0.0000 C=    0.0000
 XYZ=    0.3025   -1.1098   11.5094 Q=    0.4100 A=    0.0000 R=    0.0000 C=    0.0000
 XYZ=   -0.2442   -0.2800   12.8053 Q=    0.4100 A=    0.0000 R=    0.0000 C=    0.0000
 XYZ=   -0.6471  -11.7592   -6.0998 Q=   -0.8200 A=    0.0000 R=    0.0000 C=    0.0000
 XYZ=   -0.6416  -12.7031   -5.7695 Q=    0.4100 A=    0.0000 R=    0.0000 C=    0.0000
 XYZ=   -0.7829  -11.1371   -5.3287 Q=    0.4100 A=    0.0000 R=    0.0000 C=    0.0000
 XYZ=   -6.4179    3.5888    8.2926 Q=   -0.8200 A=    0.0000 R=    0.0000 C=    0.0000
 XYZ=   -6.5638    2.9851    9.0764 Q=    0.4100 A=    0.0000 R=    0.0000 C=    0.0000
 XYZ=   -6.1123    4.4849    8.6146 Q=    0.4100 A=    0.0000 R=    0.0000 C=    0.0000
[...]
    39  O    0.000000   0.000000   0.000000   0.000000   0.000000   0.000053
    40  H    0.000000   0.000000   0.000000   0.000000   0.000000  -0.000001
    41  H    0.000000   0.000000   0.000000   0.000000   0.000000   0.000040
    42  O    0.000000   0.000000   0.000000   0.000000   0.000000   0.000014
    43  H    0.000000   0.000000   0.000000   0.000000   0.000000  -0.000003
    44  H    0.000000   0.000000   0.000000   0.000000   0.000000   0.000000
    45  O    0.000000   0.000000   0.000000   0.000000   0.000000   0.000000
    46  H    0.000000   0.000000   0.000000   0.000000   0.000000   0.000000
    47  H    0.000000   0.000000   0.000000   0.000000   0.000000   0.000000
    48  O    0.000000   0.000000   0.000000   0.000000   0.000000  -0.004175
    49  H    0.000000   0.000000   0.000000   0.000000   0.000000  -0.000163
    50  H    0.000000   0.000000   0.000000   0.000000   0.000000  -0.001283
              31         32         33         34         35         36
     1  C    0.000150  -0.000017   0.000194  -0.000018  -0.000081   0.000334
     2  H    0.000004   0.000000   0.000003   0.000000   0.000000   0.000000
     3  H    0.000000   0.000000   0.000000   0.000000   0.000000   0.000000
     4  C   -0.000418   0.000132   0.002872  -0.000091  -0.000774  -0.003144
     5  H    0.000000   0.000000   0.000000   0.000000   0.000000  -0.000003
     6  C   -0.000055  -0.000137   0.003632   0.000004  -0.000969   0.000934
     7  H   -0.000009   0.000000  -0.000047   0.000000  -0.000016   0.000708
     8  O    0.003264   0.000046  -0.009749   0.000214   0.004829   0.000083
     9  O   -0.000138   0.000043  -0.025089   0.000653   0.007770  -0.001346
    10  H   -0.000104  -0.000001   0.001765  -0.000056  -0.000909   0.000015
    11  H    0.000003   0.000000   0.007619  -0.000262  -0.001610   0.000037
    12  O    0.000001   0.000000  -0.000073  -0.000009   0.000016   0.000000
    13  H    0.000000   0.000000  -0.000002   0.000000   0.000000   0.000000
    14  H    0.000000   0.000000   0.000027  -0.000007  -0.000004   0.000000
    15  O    0.048390   0.003849  -0.020170  -0.000686   0.060792   0.000066
    16  H   -0.000113   0.000125   0.002148  -0.000075  -0.003846   0.000018
    17  H   -0.002102  -0.000258   0.001586   0.000012  -0.000881  -0.000003
    18  O   -0.000003   0.000000   0.000503  -0.000004  -0.000103  -0.077875
    19  H    0.000000   0.000000  -0.000016   0.000000   0.000002   0.001554
    20  H    0.000002   0.000000   0.000221  -0.000001  -0.000033   0.000653
    21  O    0.000000   0.000000   0.000004   0.000000   0.000000   0.000000
    22  H    0.000000   0.000000   0.000000   0.000000   0.000000   0.000000
    23  H    0.000000   0.000000   0.000000   0.000000   0.000000   0.000000
    24  O    0.000000   0.000000  -0.000032   0.000006   0.000000   0.000000
    25  H    0.000000   0.000000   0.000000   0.000000   0.000000   0.000000
    26  H    0.000000   0.000000   0.000006   0.000000   0.000000   0.000000
    27  O    0.000000   0.000000   0.000000   0.000000   0.000000   0.000000
    28  H    0.000000   0.000000   0.000000   0.000000   0.000000   0.000000
    29  H    0.000000   0.000000   0.000000   0.000000   0.000000   0.000000
    30  O    0.175921   0.221139  -0.003195   0.000040  -0.002825  -0.000001
    31  H    0.205674  -0.011579  -0.000713  -0.000023   0.000129   0.000000
    32  H   -0.011579   0.227507  -0.000343  -0.000005  -0.000250   0.000000
    33  O   -0.000713  -0.000343   9.088160   0.196009   0.087114   0.000003
    34  H   -0.000023  -0.000005   0.196009   0.147524  -0.000433   0.000000
    35  H    0.000129  -0.000250   0.087114  -0.000433   0.204271   0.000000
    36  O    0.000000   0.000000   0.000003   0.000000   0.000000   8.941200
    37  H    0.000000   0.000000   0.000001   0.000000   0.000000   0.147645
    38  H    0.000000   0.000000   0.000000   0.000000   0.000000   0.223173
    39  O   -0.000002  -0.000004  -0.088513   0.001204   0.002438   0.000047
    40  H    0.000000   0.000000   0.001085  -0.000056  -0.000015   0.000000
    41  H   -0.000006   0.000000   0.021701   0.000564   0.000774   0.000000
    42  O    0.000001   0.000000   0.000000   0.000000   0.000000  -0.000246
    43  H    0.000000   0.000000   0.000000   0.000000   0.000000   0.000020
    44  H    0.000000   0.000000   0.000000   0.000000   0.000000  -0.000032
    45  O    0.000000   0.000000   0.000000   0.000000   0.000000  -0.049595
    46  H    0.000000   0.000000   0.000000   0.000000   0.000000   0.057149
    47  H    0.000000   0.000000   0.000000   0.000000   0.000000  -0.002325
    48  O    0.000196   0.000050  -0.001418   0.000035   0.000264  -0.000011
    49  H   -0.000018  -0.000021  -0.000012   0.000000   0.000007   0.000000
    50  H    0.000011   0.000094   0.000077   0.000000  -0.000028   0.000000
              37         38         39         40         41         42
     1  C   -0.000070  -0.000009  -0.000139   0.000003   0.000010   0.000025
     2  H    0.000000   0.000000   0.000000   0.000000   0.000000   0.000000
     3  H    0.000000   0.000000   0.000000   0.000000   0.000000   0.000000
     4  C    0.000736   0.000086   0.001089   0.000007  -0.000108  -0.000428
     5  H    0.000000   0.000000   0.000000   0.000000   0.000000   0.000000
     6  C   -0.000313  -0.000233   0.001744  -0.000063  -0.000501   0.000364
     7  H   -0.000123  -0.000004   0.000000   0.000000   0.000003   0.000010
     8  O    0.000026   0.000001  -0.004893   0.000070  -0.000715  -0.000003
     9  O   -0.000020   0.000015  -0.085557   0.002171   0.016668   0.000008
    10  H    0.000002   0.000000   0.000444  -0.000084  -0.001070   0.000000
    11  H    0.000029   0.000000   0.086704  -0.000951  -0.003677   0.000000
    12  O    0.000000   0.000000  -0.000075   0.000001   0.000016   0.000000
    13  H    0.000000   0.000000   0.000000   0.000000   0.000000   0.000000
    14  H    0.000000   0.000000  -0.000002   0.000000  -0.000002   0.000000
    15  O    0.000020   0.000001   0.001172  -0.000102   0.002149  -0.000088
    16  H    0.000006   0.000000   0.000950   0.000006  -0.000441  -0.000002
    17  H    0.000000   0.000000  -0.000124   0.000000   0.000017  -0.000011
    18  O    0.031589   0.000795   0.001717  -0.000002   0.000063  -0.000085
    19  H   -0.000410  -0.000190  -0.000083  -0.000001  -0.000005   0.000004
    20  H    0.001194   0.000036   0.000991   0.000001   0.000040  -0.000001
    21  O    0.000000   0.000000  -0.000003   0.000000   0.000000   0.000000
    22  H    0.000000   0.000000   0.000000   0.000000   0.000000   0.000000
    23  H    0.000000   0.000000   0.000000   0.000000   0.000000   0.000000
    24  O    0.000000   0.000000   0.000001   0.000000   0.000000   0.000000
    25  H    0.000000   0.000000   0.000000   0.000000   0.000000   0.000000
    26  H    0.000000   0.000000   0.000000   0.000000   0.000000   0.000000
    27  O    0.000000   0.000000   0.000000   0.000000   0.000000   0.000000
    28  H    0.000000   0.000000   0.000000   0.000000   0.000000   0.000000
    29  H    0.000000   0.000000   0.000000   0.000000   0.000000   0.000000
    30  O    0.000000   0.000000   0.000053  -0.000001   0.000040   0.000014
    31  H    0.000000   0.000000  -0.000002   0.000000  -0.000006   0.000001
    32  H    0.000000   0.000000  -0.000004   0.000000   0.000000   0.000000
    33  O    0.000001   0.000000  -0.088513   0.001085   0.021701   0.000000
    34  H    0.000000   0.000000   0.001204  -0.000056   0.000564   0.000000
    35  H    0.000000   0.000000   0.002438  -0.000015   0.000774   0.000000
    36  O    0.147645   0.223173   0.000047   0.000000   0.000000  -0.000246
    37  H    0.181640  -0.004531   0.000008   0.000000   0.000000  -0.000024
    38  H   -0.004531   0.196884   0.000000   0.000000   0.000000   0.000036
    39  O    0.000008   0.000000   8.909326   0.208410   0.135773   0.000000
    40  H    0.000000   0.000000   0.208410   0.167890  -0.001428   0.000000
    41  H    0.000000   0.000000   0.135773  -0.001428   0.245186   0.000000
    42  O   -0.000024   0.000036   0.000000   0.000000   0.000000   8.671511
    43  H    0.000000   0.000000   0.000000   0.000000   0.000000   0.234187
    44  H    0.000000   0.000001   0.000000   0.000000   0.000000   0.219370
    45  O    0.002263   0.002787   0.000000   0.000000   0.000000   0.000897
    46  H   -0.000928  -0.006087   0.000000   0.000000   0.000000   0.000123
    47  H   -0.000034   0.000330   0.000000   0.000000   0.000000   0.000065
    48  O   -0.000004   0.000001  -0.000150   0.000001   0.000024   0.001070
    49  H    0.000000   0.000000   0.000000   0.000000   0.000000  -0.000048
    50  H    0.000000   0.000000   0.000005   0.000000  -0.000001  -0.000020
              43         44         45         46         47         48
     1  C    0.000000  -0.000001   0.000096   0.000053  -0.000001   0.000045
     2  H    0.000000   0.000000   0.000000   0.000000   0.000000   0.000000
     3  H    0.000000   0.000000   0.000000   0.000000   0.000000   0.000000
     4  C    0.000021  -0.000005   0.000685   0.000071  -0.000004   0.000367
     5  H    0.000000   0.000000  -0.000008   0.000000   0.000000   0.000000
     6  C    0.000032  -0.000006  -0.001061   0.000078   0.000004   0.000857
     7  H    0.000000   0.000000  -0.000003  -0.000009   0.000000  -0.000006
     8  O   -0.000003   0.000000   0.000001  -0.000001   0.000000   0.000387
     9  O    0.000000   0.000000   0.000042  -0.000022   0.000000   0.002623
    10  H    0.000000   0.000000   0.000000   0.000000   0.000000  -0.000030
    11  H    0.000000   0.000000   0.000000   0.000000   0.000000  -0.000141
    12  O    0.000000   0.000000   0.000000   0.000000   0.000000   0.000000
    13  H    0.000000   0.000000   0.000000   0.000000   0.000000   0.000000
    14  H    0.000000   0.000000   0.000000   0.000000   0.000000   0.000000
    15  O    0.000004   0.000000  -0.000001   0.000000   0.000000  -0.070477
    16  H    0.000000   0.000000   0.000000   0.000000   0.000000   0.002113
    17  H   -0.000001   0.000000   0.000000   0.000000   0.000000   0.040936
    18  O   -0.000001   0.000001  -0.000892   0.000325   0.000001  -0.000410
    19  H    0.000000   0.000000  -0.000006   0.000009   0.000000  -0.000002
    20  H    0.000000   0.000000   0.000038  -0.000018   0.000000   0.000022
    21  O    0.000000   0.000000   0.000000   0.000000   0.000000   0.000000
    22  H    0.000000   0.000000   0.000000   0.000000   0.000000   0.000000
    23  H    0.000000   0.000000   0.000000   0.000000   0.000000   0.000000
    24  O    0.000000   0.000000   0.000000   0.000000   0.000000   0.000000
    25  H    0.000000   0.000000   0.000000   0.000000   0.000000   0.000000
    26  H    0.000000   0.000000   0.000000   0.000000   0.000000   0.000000
    27  O    0.000000   0.000000   0.000000   0.000000   0.000000   0.000000
    28  H    0.000000   0.000000   0.000000   0.000000   0.000000   0.000000
    29  H    0.000000   0.000000   0.000000   0.000000   0.000000   0.000000
    30  O   -0.000003   0.000000   0.000000   0.000000   0.000000  -0.004175
    31  H    0.000000   0.000000   0.000000   0.000000   0.000000   0.000196
    32  H    0.000000   0.000000   0.000000   0.000000   0.000000   0.000050
    33  O    0.000000   0.000000   0.000000   0.000000   0.000000  -0.001418
    34  H    0.000000   0.000000   0.000000   0.000000   0.000000   0.000035
    35  H    0.000000   0.000000   0.000000   0.000000   0.000000   0.000264
    36  O    0.000020  -0.000032  -0.049595   0.057149  -0.002325  -0.000011
    37  H    0.000000   0.000000   0.002263  -0.000928  -0.000034  -0.000004
    38  H    0.000000   0.000001   0.002787  -0.006087   0.000330   0.000001
    39  O    0.000000   0.000000   0.000000   0.000000   0.000000  -0.000150
    40  H    0.000000   0.000000   0.000000   0.000000   0.000000   0.000001
    41  H    0.000000   0.000000   0.000000   0.000000   0.000000   0.000024
    42  O    0.234187   0.219370   0.000897   0.000123   0.000065   0.001070
    43  H    0.287556  -0.011864  -0.000013   0.000001   0.000002   0.000071
    44  H   -0.011864   0.156376  -0.000066  -0.000006  -0.000017  -0.000006
    45  O   -0.000013  -0.000066   8.891087   0.145884   0.220315   0.000002
    46  H    0.000001  -0.000006   0.145884   0.224572  -0.005168   0.000000
    47  H    0.000002  -0.000017   0.220315  -0.005168   0.197626   0.000000
    48  O    0.000071  -0.000006   0.000002   0.000000   0.000000   8.778154
    49  H    0.000014   0.000000   0.000000   0.000000   0.000000   0.209330
    50  H    0.000000   0.000000   0.000000   0.000000   0.000000   0.211074
              49         50
     1  C   -0.000004   0.000002
     2  H    0.000000   0.000000
     3  H    0.000000   0.000000
     4  C   -0.000047   0.000032
     5  H    0.000000   0.000000
     6  C   -0.000064   0.000085
     7  H    0.000000   0.000000
     8  O    0.000005  -0.000022
     9  O   -0.000012  -0.000031
    10  H    0.000000   0.000000
    11  H    0.000000   0.000000
    12  O    0.000000   0.000000
    13  H    0.000000   0.000000
    14  H    0.000000   0.000000
    15  O    0.001126   0.000931
    16  H   -0.000057   0.000050
    17  H   -0.000337  -0.002136
    18  O    0.000008  -0.000010
    19  H    0.000000   0.000000
    20  H    0.000000   0.000000
    21  O    0.000000   0.000000
    22  H    0.000000   0.000000
    23  H    0.000000   0.000000
    24  O    0.000000   0.000000
    25  H    0.000000   0.000000
    26  H    0.000000   0.000000
    27  O    0.000000   0.000000
    28  H    0.000000   0.000000
    29  H    0.000000   0.000000
    30  O   -0.000163  -0.001283
    31  H   -0.000018   0.000011
    32  H   -0.000021   0.000094
    33  O   -0.000012   0.000077
    34  H    0.000000   0.000000
    35  H    0.000007  -0.000028
    36  O    0.000000   0.000000
    37  H    0.000000   0.000000
    38  H    0.000000   0.000000
    39  O    0.000000   0.000005
    40  H    0.000000   0.000000
    41  H    0.000000  -0.000001
    42  O   -0.000048  -0.000020
    43  H    0.000014   0.000000
    44  H    0.000000   0.000000
    45  O    0.000000   0.000000
    46  H    0.000000   0.000000
    47  H    0.000000   0.000000
    48  O    0.209330   0.211074
    49  H    0.182715  -0.007686
    50  H   -0.007686   0.209947
 Mulliken charges:
               1
     1  C   -0.391443
     2  H    0.268784
     3  H    0.231347
     4  C   -0.082515
     5  H    0.232687
     6  C    0.030981
     7  H    0.217176
     8  O   -0.400029
     9  O   -1.324665
    10  H    0.521895
    11  H    0.607052
    12  O   -1.133782
    13  H    0.625724
    14  H    0.496991
    15  O   -1.294794
    16  H    0.652860
    17  H    0.614943
    18  O   -1.226383
    19  H    0.636660
    20  H    0.621772
    21  O   -1.204375
    22  H    0.621690
    23  H    0.601968
    24  O   -1.229598
    25  H    0.553247
    26  H    0.644411
    27  O   -1.142701
    28  H    0.600381
    29  H    0.574075
    30  O   -1.118218
    31  H    0.581539
    32  H    0.559630
    33  O   -1.265360
    34  H    0.655461
    35  H    0.644370
    36  O   -1.239057
    37  H    0.641299
    38  H    0.586910
    39  O   -1.172530
    40  H    0.623059
    41  H    0.584922
    42  O   -1.126728
    43  H    0.489977
    44  H    0.636255
    45  O   -1.212450
    46  H    0.583976
    47  H    0.589208
    48  O   -1.170793
    49  H    0.615262
    50  H    0.588909
 Sum of Mulliken charges =   0.00000
 Mulliken charges with hydrogens summed into heavy atoms:
               1
     1  C    0.108688
     4  C    0.150172
     6  C    0.248157
     8  O   -0.400029
     9  O   -0.195719
    12  O   -0.011066
    15  O   -0.026990
    18  O    0.032049
    21  O    0.019283
    24  O   -0.031940
    27  O    0.031755
    30  O    0.022952
    33  O    0.034471
    36  O   -0.010848
    39  O    0.035452
    42  O   -0.000496
    45  O   -0.039267
    48  O    0.033378
 Electronic spatial extent (au):  <R**2>=          12154.2514
 Charge=              0.0000 electrons
 Dipole moment (field-independent basis, Debye):
    X=              0.5117    Y=              4.4750    Z=             -7.2699  Tot=              8.5521
 Quadrupole moment (field-independent basis, Debye-Ang):
   XX=            -87.1834   YY=           -113.1310   ZZ=           -117.7650
   XY=            104.2817   XZ=             23.9378   YZ=            -25.0625
 Traceless Quadrupole moment (field-independent basis, Debye-Ang):
   XX=             18.8431   YY=             -7.1045   ZZ=            -11.7386
   XY=            104.2817   XZ=             23.9378   YZ=            -25.0625
 Octapole moment (field-independent basis, Debye-Ang**2):
  XXX=           -146.5407  YYY=            -81.5334  ZZZ=            -14.5373  XYY=            201.2506
  XXY=            236.0169  XXZ=           -220.6050  XZZ=            -28.3642  YZZ=             15.0062
  YYZ=            -31.0125  XYZ=            -17.8018
 Hexadecapole moment (field-independent basis, Debye-Ang**3):
 XXXX=          -5991.3787 YYYY=          -3784.4036 ZZZZ=          -1707.6102 XXXY=           2148.8348
 XXXZ=            231.6657 YYYX=           2233.9577 YYYZ=            -86.1995 ZZZX=            328.7758
 ZZZY=           -309.0411 XXYY=          -1590.7718 XXZZ=          -1136.9984 YYZZ=          -1181.9711
 XXYZ=           -284.2688 YYXZ=            356.6440 ZZXY=              1.9282
 N-N= 1.105684593266D+03 E-N=-6.176795202174D+03  KE= 1.249226397275D+03
 Leave Link  601 at Fri Sep 14 18:12:25 2018, MaxMem=    33554432 cpu:        10.6
 (Enter /usr/local/pacerepov1/gaussian/G09D01LINDA/g09/l9999.exe)

 Test job not archived.
 1\1\GINC-RICH133-C38-20-R\SP\RLC-wPBE TD-FC\6-31+G(d)\C3H32O15\ROOT\14
 -Sep-2018\0\\#p td=(nstates=15)/6-31+g(d) lc-wpbe charge\\Acroleina in
  Water\\0,1\C,0,0.485154,0.480443,-1.430142\H,0,1.461403,0.187773,-1.0
 55732\H,0,0.429244,0.878853,-2.437062\C,0,-0.605127,0.346563,-0.658432
 \H,0,-1.591686,0.632893,-1.012412\C,0,-0.508516,-0.199107,0.712798\H,0
 ,-1.458487,-0.272107,1.272438\O,0,0.544883,-0.561317,1.236519\O,0,-0.3
 96891,-0.477645,3.327071\H,0,0.012439,0.009375,2.555521\H,0,0.077739,-
 0.225065,4.170271\O,0,3.221829,2.376405,0.969991\H,0,2.850689,3.268555
 ,0.712281\H,0,2.489549,1.805385,1.341101\O,0,0.885599,-2.560905,2.9002
 61\H,0,0.243049,-1.795715,2.859461\H,0,0.383329,-3.422265,2.824191\O,0
 ,-2.728371,-0.847005,3.909241\H,0,-2.505061,-1.427145,4.692581\H,0,-1.
 884051,-0.547465,3.464911\O,0,2.471949,4.455375,0.321231\H,0,2.985059,
 4.958485,-0.374189\H,0,1.504839,4.429375,0.068081\O,0,5.467789,2.04797
 5,0.573301\H,0,5.701359,2.221375,-0.383479\H,0,4.481399,2.153235,0.699
 911\O,0,0.270429,4.757795,-0.717529\H,0,0.568669,5.584995,-1.193779\H,
 0,-0.693941,4.586475,-0.919219\O,0,2.558699,-3.960455,1.547331\H,0,1.8
 66979,-3.251845,1.686861\H,0,2.748389,-4.416775,2.416711\O,0,2.424369,
 -1.329775,4.376611\H,0,3.275569,-1.084405,3.912611\H,0,1.892899,-1.945
 175,3.794491\O,0,-4.761471,-0.954475,2.790931\H,0,-3.911351,-0.910495,
 3.315731\H,0,-5.192691,-1.846135,2.929121\O,0,0.788009,-0.011105,5.599
 491\H,0,1.327449,0.629345,6.146151\H,0,1.401119,-0.579835,5.051151\O,0
 ,-3.908441,-4.996915,1.093651\H,0,-3.055721,-5.387515,0.746711\H,0,-4.
 601361,-5.016145,0.372841\O,0,-6.300951,-1.263905,0.794601\H,0,-5.5035
 31,-1.148255,1.386851\H,0,-6.673071,-2.184585,0.912681\O,0,-0.334031,-
 4.805285,3.290581\H,0,-0.689531,-5.543435,2.717171\H,0,0.354609,-5.171
 605,3.916381\\Version=EM64L-G09RevD.01\State=1-A\HF=-1759.1878796\RMSD
 =2.766e-09\PG=C01 [X(C3H32O15)]\\@


 UNLESS WE CHANGE DIRECTIONS, WE WILL WIND UP WHERE WE ARE HEADED.
     -- CONFUCIUS
 Job cpu time:       0 days  3 hours 21 minutes 55.6 seconds.
 File lengths (MBytes):  RWF=    792 Int=      0 D2E=      0 Chk=     96 Scr=      2
 Normal termination of Gaussian 09 at Fri Sep 14 18:12:30 2018.
