 Entering Gaussian System, Link 0=g09
 Input=Acroleina_water_15_91c.gjf
 Output=Acroleina_water_15_91c.log
 Initial command:
 /usr/local/pacerepov1/gaussian/G09D01LINDA/g09/l1.exe /nv/hp18/holiveira7/scratch/22412040/Gau-14340.inp -scrdir=/nv/hp18/holiveira7/scratch/22412040/
 Entering Link 1 = /usr/local/pacerepov1/gaussian/G09D01LINDA/g09/l1.exe PID=     14341.
  
 Copyright (c) 1988,1990,1992,1993,1995,1998,2003,2009,2013,
            Gaussian, Inc.  All Rights Reserved.
  
 This is part of the Gaussian(R) 09 program.  It is based on
 the Gaussian(R) 03 system (copyright 2003, Gaussian, Inc.),
 the Gaussian(R) 98 system (copyright 1998, Gaussian, Inc.),
 the Gaussian(R) 94 system (copyright 1995, Gaussian, Inc.),
 the Gaussian 92(TM) system (copyright 1992, Gaussian, Inc.),
 the Gaussian 90(TM) system (copyright 1990, Gaussian, Inc.),
 the Gaussian 88(TM) system (copyright 1988, Gaussian, Inc.),
 the Gaussian 86(TM) system (copyright 1986, Carnegie Mellon
 University), and the Gaussian 82(TM) system (copyright 1983,
 Carnegie Mellon University). Gaussian is a federally registered
 trademark of Gaussian, Inc.
  
 This software contains proprietary and confidential information,
 including trade secrets, belonging to Gaussian, Inc.
  
 This software is provided under written license and may be
 used, copied, transmitted, or stored only in accord with that
 written license.
  
 The following legend is applicable only to US Government
 contracts under FAR:
  
                    RESTRICTED RIGHTS LEGEND
  
 Use, reproduction and disclosure by the US Government is
 subject to restrictions as set forth in subparagraphs (a)
 and (c) of the Commercial Computer Software - Restricted
 Rights clause in FAR 52.227-19.
  
 Gaussian, Inc.
 340 Quinnipiac St., Bldg. 40, Wallingford CT 06492
  
  
 ---------------------------------------------------------------
 Warning -- This program may not be used in any manner that
 competes with the business of Gaussian, Inc. or will provide
 assistance to any competitor of Gaussian, Inc.  The licensee
 of this program is prohibited from giving any competitor of
 Gaussian, Inc. access to this program.  By using this program,
 the user acknowledges that Gaussian, Inc. is engaged in the
 business of creating and licensing software in the field of
 computational chemistry and represents and warrants to the
 licensee that it is not a competitor of Gaussian, Inc. and that
 it will not use this program in any manner prohibited above.
 ---------------------------------------------------------------
  

 Cite this work as:
 Gaussian 09, Revision D.01,
 M. J. Frisch, G. W. Trucks, H. B. Schlegel, G. E. Scuseria, 
 M. A. Robb, J. R. Cheeseman, G. Scalmani, V. Barone, B. Mennucci, 
 G. A. Petersson, H. Nakatsuji, M. Caricato, X. Li, H. P. Hratchian, 
 A. F. Izmaylov, J. Bloino, G. Zheng, J. L. Sonnenberg, M. Hada, 
 M. Ehara, K. Toyota, R. Fukuda, J. Hasegawa, M. Ishida, T. Nakajima, 
 Y. Honda, O. Kitao, H. Nakai, T. Vreven, J. A. Montgomery, Jr., 
 J. E. Peralta, F. Ogliaro, M. Bearpark, J. J. Heyd, E. Brothers, 
 K. N. Kudin, V. N. Staroverov, T. Keith, R. Kobayashi, J. Normand, 
 K. Raghavachari, A. Rendell, J. C. Burant, S. S. Iyengar, J. Tomasi, 
 M. Cossi, N. Rega, J. M. Millam, M. Klene, J. E. Knox, J. B. Cross, 
 V. Bakken, C. Adamo, J. Jaramillo, R. Gomperts, R. E. Stratmann, 
 O. Yazyev, A. J. Austin, R. Cammi, C. Pomelli, J. W. Ochterski, 
 R. L. Martin, K. Morokuma, V. G. Zakrzewski, G. A. Voth, 
 P. Salvador, J. J. Dannenberg, S. Dapprich, A. D. Daniels, 
 O. Farkas, J. B. Foresman, J. V. Ortiz, J. Cioslowski, 
 and D. J. Fox, Gaussian, Inc., Wallingford CT, 2013.
 
 ******************************************
 Gaussian 09:  EM64L-G09RevD.01 24-Apr-2013
                14-Sep-2018 
 ******************************************
 %chk=Acrolina_Din_91.chk
 %nprocshared=10
 Will use up to   10 processors via shared memory.
 -------------------------------------------
 #p td=(nstates=15)/6-31+g(d) lc-wpbe charge
 -------------------------------------------
 1/18=10,28=-2,38=1,125=101/1;
 2/12=2,17=6,18=5,40=1/2;
 3/5=1,6=6,7=11,11=9,16=1,25=1,30=1,74=-41/1,2,8,3;
 4//1;
 5/5=2,38=5/2;
 8/6=1,10=2,108=15/1;
 9/41=15,42=1,70=2/14;
 6/7=2,8=2,9=2,10=2/1;
 99/5=1,9=1/99;
 Leave Link    1 at Fri Sep 14 17:53:29 2018, MaxMem=           0 cpu:         9.0
 (Enter /usr/local/pacerepov1/gaussian/G09D01LINDA/g09/l101.exe)
 ------------------
 Acroleina in Water
 ------------------
 Symbolic Z-matrix:
 Charge =  0 Multiplicity = 1
 C                     0.48515   0.48044  -1.43014 
 H                     1.4614    0.18777  -1.05573 
 H                     0.42924   0.87885  -2.43706 
 C                    -0.60513   0.34656  -0.65843 
 H                    -1.59169   0.63289  -1.01241 
 C                    -0.50852  -0.19911   0.7128 
 H                    -1.45849  -0.27211   1.27244 
 O                     0.54488  -0.56132   1.23652 
 O                     0.49848  -3.09644   2.32844 
 H                     0.14275  -2.47179   1.63322 
 H                    -0.22876  -3.71645   2.62284 
 O                    -1.45525  -0.23048   2.87739 
 H                    -1.04493  -0.56049   2.02725 
 H                    -0.76183  -0.21422   3.59777 
 O                     2.19485   2.52912  -0.23119 
 H                     1.8999    3.4828   -0.29091 
 H                     1.4425    1.96869   0.11507 
 O                    -0.51437   4.68078  -0.88913 
 H                    -0.35574   5.18988  -1.7351 
 H                    -1.48142   4.73936  -0.64126 
 O                     1.85363   4.77494  -0.52164 
 H                     2.20201   5.22991  -1.34117 
 H                     0.85849   4.69651  -0.58154 
 O                     1.90032  -1.99415   3.92133 
 H                     2.65022  -1.60118   3.38909 
 H                     1.32496  -2.55311   3.3242 
 O                    -2.98671   5.0546   -0.85266 
 H                    -3.75383   4.588    -1.29291 
 H                    -3.28676   5.43802   0.02082 
 O                     2.06877  -4.78769   1.44142 
 H                     1.4856   -4.06439   1.81133 
 H                     2.23022  -5.47865   2.14608 
 O                     0.27473  -0.53295   4.5821 
 H                     0.66579   0.04052   5.30198 
 H                     0.9669   -1.17691   4.25615 
 O                    -3.67325  -0.8713    3.91168 
 H                    -3.50678  -1.75391   4.35136 
 H                    -2.85837  -0.5934    3.403 
 O                     4.53964   1.94923  -0.18648 
 H                     4.81886   2.10958  -1.13323 
 H                     3.57529   2.19071  -0.07798 
 O                     4.10309  -4.54276   0.13274 
 H                     3.25879  -4.59841   0.66579 
 H                     4.10887  -5.26518  -0.55874 
 O                     2.96104  -0.61326  -4.88746 
 H                     2.48163   0.03033  -5.48414 
 H                     3.7938   -0.1852   -4.5363 
 O                     3.80422  -1.32801   2.98122 
 H                     4.03557  -0.5352    3.54512 
 H                     4.25647  -1.24849   2.09285 
 
 NAtoms=     50 NQM=       50 NQMF=       0 NMMI=      0 NMMIF=      0
                NMic=       0 NMicF=      0.
                    Isotopes and Nuclear Properties:
 (Nuclear quadrupole moments (NQMom) in fm**2, nuclear magnetic moments (NMagM)
  in nuclear magnetons)

  Atom         1           2           3           4           5           6           7           8           9          10
 IAtWgt=          12           1           1          12           1          12           1          16          16           1
 AtmWgt=  12.0000000   1.0078250   1.0078250  12.0000000   1.0078250  12.0000000   1.0078250  15.9949146  15.9949146   1.0078250
 NucSpn=           0           1           1           0           1           0           1           0           0           1
 AtZEff=   0.0000000   0.0000000   0.0000000   0.0000000   0.0000000   0.0000000   0.0000000   0.0000000   0.0000000   0.0000000
 NQMom=    0.0000000   0.0000000   0.0000000   0.0000000   0.0000000   0.0000000   0.0000000   0.0000000   0.0000000   0.0000000
 NMagM=    0.0000000   2.7928460   2.7928460   0.0000000   2.7928460   0.0000000   2.7928460   0.0000000   0.0000000   2.7928460
 AtZNuc=   6.0000000   1.0000000   1.0000000   6.0000000   1.0000000   6.0000000   1.0000000   8.0000000   8.0000000   1.0000000

  Atom        11          12          13          14          15          16          17          18          19          20
 IAtWgt=           1          16           1           1          16           1           1          16           1           1
 AtmWgt=   1.0078250  15.9949146   1.0078250   1.0078250  15.9949146   1.0078250   1.0078250  15.9949146   1.0078250   1.0078250
 NucSpn=           1           0           1           1           0           1           1           0           1           1
 AtZEff=   0.0000000   0.0000000   0.0000000   0.0000000   0.0000000   0.0000000   0.0000000   0.0000000   0.0000000   0.0000000
 NQMom=    0.0000000   0.0000000   0.0000000   0.0000000   0.0000000   0.0000000   0.0000000   0.0000000   0.0000000   0.0000000
 NMagM=    2.7928460   0.0000000   2.7928460   2.7928460   0.0000000   2.7928460   2.7928460   0.0000000   2.7928460   2.7928460
 AtZNuc=   1.0000000   8.0000000   1.0000000   1.0000000   8.0000000   1.0000000   1.0000000   8.0000000   1.0000000   1.0000000

  Atom        21          22          23          24          25          26          27          28          29          30
 IAtWgt=          16           1           1          16           1           1          16           1           1          16
 AtmWgt=  15.9949146   1.0078250   1.0078250  15.9949146   1.0078250   1.0078250  15.9949146   1.0078250   1.0078250  15.9949146
 NucSpn=           0           1           1           0           1           1           0           1           1           0
 AtZEff=   0.0000000   0.0000000   0.0000000   0.0000000   0.0000000   0.0000000   0.0000000   0.0000000   0.0000000   0.0000000
 NQMom=    0.0000000   0.0000000   0.0000000   0.0000000   0.0000000   0.0000000   0.0000000   0.0000000   0.0000000   0.0000000
 NMagM=    0.0000000   2.7928460   2.7928460   0.0000000   2.7928460   2.7928460   0.0000000   2.7928460   2.7928460   0.0000000
 AtZNuc=   8.0000000   1.0000000   1.0000000   8.0000000   1.0000000   1.0000000   8.0000000   1.0000000   1.0000000   8.0000000

  Atom        31          32          33          34          35          36          37          38          39          40
 IAtWgt=           1           1          16           1           1          16           1           1          16           1
 AtmWgt=   1.0078250   1.0078250  15.9949146   1.0078250   1.0078250  15.9949146   1.0078250   1.0078250  15.9949146   1.0078250
 NucSpn=           1           1           0           1           1           0           1           1           0           1
 AtZEff=   0.0000000   0.0000000   0.0000000   0.0000000   0.0000000   0.0000000   0.0000000   0.0000000   0.0000000   0.0000000
 NQMom=    0.0000000   0.0000000   0.0000000   0.0000000   0.0000000   0.0000000   0.0000000   0.0000000   0.0000000   0.0000000
 NMagM=    2.7928460   2.7928460   0.0000000   2.7928460   2.7928460   0.0000000   2.7928460   2.7928460   0.0000000   2.7928460
 AtZNuc=   1.0000000   1.0000000   8.0000000   1.0000000   1.0000000   8.0000000   1.0000000   1.0000000   8.0000000   1.0000000

  Atom        41          42          43          44          45          46          47          48          49          50
 IAtWgt=           1          16           1           1          16           1           1          16           1           1
 AtmWgt=   1.0078250  15.9949146   1.0078250   1.0078250  15.9949146   1.0078250   1.0078250  15.9949146   1.0078250   1.0078250
 NucSpn=           1           0           1           1           0           1           1           0           1           1
 AtZEff=   0.0000000   0.0000000   0.0000000   0.0000000   0.0000000   0.0000000   0.0000000   0.0000000   0.0000000   0.0000000
 NQMom=    0.0000000   0.0000000   0.0000000   0.0000000   0.0000000   0.0000000   0.0000000   0.0000000   0.0000000   0.0000000
 NMagM=    2.7928460   0.0000000   2.7928460   2.7928460   0.0000000   2.7928460   2.7928460   0.0000000   2.7928460   2.7928460
 AtZNuc=   1.0000000   8.0000000   1.0000000   1.0000000   8.0000000   1.0000000   1.0000000   8.0000000   1.0000000   1.0000000
 Background charge distribution read from input stream:
 Point Charges:
 XYZ=    5.3566   -2.8959   -0.9253 Q=   -0.8200 A=    0.0000 R=    0.0000 C=    0.0000
 XYZ=    4.7240   -3.6166   -0.6418 Q=    0.4100 A=    0.0000 R=    0.0000 C=    0.0000
 XYZ=    6.2704   -3.2834   -1.0470 Q=    0.4100 A=    0.0000 R=    0.0000 C=    0.0000
 XYZ=    5.4154   -1.5694   -2.7753 Q=   -0.8200 A=    0.0000 R=    0.0000 C=    0.0000
 XYZ=    6.3698   -1.2817   -2.6949 Q=    0.4100 A=    0.0000 R=    0.0000 C=    0.0000
 XYZ=    5.1568   -2.0961   -1.9655 Q=    0.4100 A=    0.0000 R=    0.0000 C=    0.0000
 XYZ=   -0.7762   -2.4381    5.6706 Q=   -0.8200 A=    0.0000 R=    0.0000 C=    0.0000
 XYZ=   -0.4772   -1.5831    5.2468 Q=    0.4100 A=    0.0000 R=    0.0000 C=    0.0000
 XYZ=   -1.6470   -2.7223    5.2692 Q=    0.4100 A=    0.0000 R=    0.0000 C=    0.0000
 XYZ=   -0.1637    6.2602   -2.6035 Q=   -0.8200 A=    0.0000 R=    0.0000 C=    0.0000
 XYZ=   -1.1152    6.5566   -2.5204 Q=    0.4100 A=    0.0000 R=    0.0000 C=    0.0000
 XYZ=   -0.0420    5.7683   -3.4657 Q=    0.4100 A=    0.0000 R=    0.0000 C=    0.0000
 XYZ=    0.3360    5.0476   -4.6816 Q=   -0.8200 A=    0.0000 R=    0.0000 C=    0.0000
 XYZ=    0.7528    4.1694   -4.4470 Q=    0.4100 A=    0.0000 R=    0.0000 C=    0.0000
 XYZ=    0.8916    5.5053   -5.3758 Q=    0.4100 A=    0.0000 R=    0.0000 C=    0.0000
 XYZ=   -2.3918    6.9215   -2.3034 Q=   -0.8200 A=    0.0000 R=    0.0000 C=    0.0000
 XYZ=   -2.7592    6.2074   -1.7075 Q=    0.4100 A=    0.0000 R=    0.0000 C=    0.0000
 XYZ=   -2.3342    7.7816   -1.7966 Q=    0.4100 A=    0.0000 R=    0.0000 C=    0.0000
 XYZ=   -0.9434   -4.9215    2.9547 Q=   -0.8200 A=    0.0000 R=    0.0000 C=    0.0000
 XYZ=   -1.2375   -5.4554    2.1619 Q=    0.4100 A=    0.0000 R=    0.0000 C=    0.0000
 XYZ=   -0.2011   -5.4012    3.4226 Q=    0.4100 A=    0.0000 R=    0.0000 C=    0.0000
 XYZ=    1.6876   -6.3013   -0.4144 Q=   -0.8200 A=    0.0000 R=    0.0000 C=    0.0000
 XYZ=    1.8141   -5.6844    0.3624 Q=    0.4100 A=    0.0000 R=    0.0000 C=    0.0000
 XYZ=    2.5100   -6.2937   -0.9834 Q=    0.4100 A=    0.0000 R=    0.0000 C=    0.0000
 XYZ=    5.6223   -1.8437    1.0673 Q=   -0.8200 A=    0.0000 R=    0.0000 C=    0.0000
 XYZ=    5.4233   -2.2988    0.1993 Q=    0.4100 A=    0.0000 R=    0.0000 C=    0.0000
 XYZ=    5.8308   -2.5305    1.7635 Q=    0.4100 A=    0.0000 R=    0.0000 C=    0.0000
 XYZ=    2.6518    5.9159    1.4409 Q=   -0.8200 A=    0.0000 R=    0.0000 C=    0.0000
 XYZ=    2.3558    5.4331    0.6167 Q=    0.4100 A=    0.0000 R=    0.0000 C=    0.0000
 XYZ=    2.8115    6.8789    1.2238 Q=    0.4100 A=    0.0000 R=    0.0000 C=    0.0000
 XYZ=   -2.9129    3.3665   -4.6536 Q=   -0.8200 A=    0.0000 R=    0.0000 C=    0.0000
 XYZ=   -3.5587    3.9414   -4.1511 Q=    0.4100 A=    0.0000 R=    0.0000 C=    0.0000
 XYZ=   -2.4919    3.9005   -5.3869 Q=    0.4100 A=    0.0000 R=    0.0000 C=    0.0000
 XYZ=   -5.0004    3.9698   -1.8922 Q=   -0.8200 A=    0.0000 R=    0.0000 C=    0.0000
 XYZ=   -5.5833    4.5758   -1.3508 Q=    0.4100 A=    0.0000 R=    0.0000 C=    0.0000
 XYZ=   -5.5095    3.1424   -2.1296 Q=    0.4100 A=    0.0000 R=    0.0000 C=    0.0000
 XYZ=   -5.5101    0.1444    3.0322 Q=   -0.8200 A=    0.0000 R=    0.0000 C=    0.0000
 XYZ=   -5.4486    0.3443    2.0543 Q=    0.4100 A=    0.0000 R=    0.0000 C=    0.0000
 XYZ=   -4.6653   -0.2960    3.3361 Q=    0.4100 A=    0.0000 R=    0.0000 C=    0.0000
 XYZ=    4.2070   -2.6713   -4.5544 Q=   -0.8200 A=    0.0000 R=    0.0000 C=    0.0000
 XYZ=    4.8359   -2.4117   -3.8214 Q=    0.4100 A=    0.0000 R=    0.0000 C=    0.0000
 XYZ=    3.5301   -1.9469   -4.6850 Q=    0.4100 A=    0.0000 R=    0.0000 C=    0.0000
 XYZ=    5.1972    2.2557   -2.5533 Q=   -0.8200 A=    0.0000 R=    0.0000 C=    0.0000
 XYZ=    4.9606    3.0729   -3.0790 Q=    0.4100 A=    0.0000 R=    0.0000 C=    0.0000
 XYZ=    5.2607    1.4701   -3.1690 Q=    0.4100 A=    0.0000 R=    0.0000 C=    0.0000
 XYZ=    4.9612    0.3549   -4.0010 Q=   -0.8200 A=    0.0000 R=    0.0000 C=    0.0000
 XYZ=    5.6292    0.4021   -4.7437 Q=    0.4100 A=    0.0000 R=    0.0000 C=    0.0000
 XYZ=    5.1639   -0.4334   -3.4201 Q=    0.4100 A=    0.0000 R=    0.0000 C=    0.0000
 XYZ=    6.1449    0.3420    0.4785 Q=   -0.8200 A=    0.0000 R=    0.0000 C=    0.0000
 XYZ=    5.3553    0.9470    0.3751 Q=    0.4100 A=    0.0000 R=    0.0000 C=    0.0000
 XYZ=    5.8299   -0.5857    0.6791 Q=    0.4100 A=    0.0000 R=    0.0000 C=    0.0000
 XYZ=   -3.5849    5.9898    1.4549 Q=   -0.8200 A=    0.0000 R=    0.0000 C=    0.0000
 XYZ=   -4.3661    5.3655    1.4409 Q=    0.4100 A=    0.0000 R=    0.0000 C=    0.0000
 XYZ=   -3.8510    6.8465    1.8968 Q=    0.4100 A=    0.0000 R=    0.0000 C=    0.0000
 XYZ=   -1.7541    7.7145    0.8459 Q=   -0.8200 A=    0.0000 R=    0.0000 C=    0.0000
 XYZ=   -2.1981    8.5176    1.2433 Q=    0.4100 A=    0.0000 R=    0.0000 C=    0.0000
 XYZ=   -2.2927    6.8983    1.0549 Q=    0.4100 A=    0.0000 R=    0.0000 C=    0.0000
 XYZ=    2.6405   -2.9729    6.0237 Q=   -0.8200 A=    0.0000 R=    0.0000 C=    0.0000
 XYZ=    2.4229   -2.6486    5.1031 Q=    0.4100 A=    0.0000 R=    0.0000 C=    0.0000
 XYZ=    2.8681   -2.1929    6.6067 Q=    0.4100 A=    0.0000 R=    0.0000 C=    0.0000
 XYZ=   -4.2820    1.5840   -5.3729 Q=   -0.8200 A=    0.0000 R=    0.0000 C=    0.0000
 XYZ=   -4.4125    0.7459   -4.8431 Q=    0.4100 A=    0.0000 R=    0.0000 C=    0.0000
 XYZ=   -3.5672    2.1393   -4.9477 Q=    0.4100 A=    0.0000 R=    0.0000 C=    0.0000
 XYZ=    4.2964   -4.8585   -3.6033 Q=   -0.8200 A=    0.0000 R=    0.0000 C=    0.0000
 XYZ=    4.2022   -3.9406   -3.9888 Q=    0.4100 A=    0.0000 R=    0.0000 C=    0.0000
 XYZ=    3.9173   -5.5286   -4.2414 Q=    0.4100 A=    0.0000 R=    0.0000 C=    0.0000
 XYZ=   -4.7472    4.8532   -4.1124 Q=   -0.8200 A=    0.0000 R=    0.0000 C=    0.0000
 XYZ=   -4.8726    4.6829   -3.1350 Q=    0.4100 A=    0.0000 R=    0.0000 C=    0.0000
 XYZ=   -5.4231    4.3299   -4.6313 Q=    0.4100 A=    0.0000 R=    0.0000 C=    0.0000
 XYZ=   -5.3874    4.5970    0.8795 Q=   -0.8200 A=    0.0000 R=    0.0000 C=    0.0000
 XYZ=   -5.8501    5.0963    0.1469 Q=    0.4100 A=    0.0000 R=    0.0000 C=    0.0000
 XYZ=   -6.0143    4.4783    1.6495 Q=    0.4100 A=    0.0000 R=    0.0000 C=    0.0000
 XYZ=    1.5527    7.6719   -1.9597 Q=   -0.8200 A=    0.0000 R=    0.0000 C=    0.0000
 XYZ=    2.3458    7.1079   -2.1897 Q=    0.4100 A=    0.0000 R=    0.0000 C=    0.0000
 XYZ=    0.7171    7.2069   -2.2521 Q=    0.4100 A=    0.0000 R=    0.0000 C=    0.0000
 XYZ=   -0.4177   -7.1560   -0.1945 Q=   -0.8200 A=    0.0000 R=    0.0000 C=    0.0000
 XYZ=    0.4672   -6.6970   -0.1151 Q=    0.4100 A=    0.0000 R=    0.0000 C=    0.0000
 XYZ=   -0.3406   -7.9196   -0.8356 Q=    0.4100 A=    0.0000 R=    0.0000 C=    0.0000
 XYZ=    3.8239   -6.1630   -1.4606 Q=   -0.8200 A=    0.0000 R=    0.0000 C=    0.0000
 XYZ=    4.6228   -6.7634   -1.4253 Q=    0.4100 A=    0.0000 R=    0.0000 C=    0.0000
 XYZ=    3.7519   -5.7573   -2.3718 Q=    0.4100 A=    0.0000 R=    0.0000 C=    0.0000
 XYZ=    4.6908   -3.1400    4.3980 Q=   -0.8200 A=    0.0000 R=    0.0000 C=    0.0000
 XYZ=    4.3484   -2.5123    3.6988 Q=    0.4100 A=    0.0000 R=    0.0000 C=    0.0000
 XYZ=    4.0488   -3.1676    5.1642 Q=    0.4100 A=    0.0000 R=    0.0000 C=    0.0000
 XYZ=   -3.0792   -5.1642    4.2280 Q=   -0.8200 A=    0.0000 R=    0.0000 C=    0.0000
 XYZ=   -2.1821   -5.0961    3.7916 Q=    0.4100 A=    0.0000 R=    0.0000 C=    0.0000
 XYZ=   -3.0957   -5.9598    4.8337 Q=    0.4100 A=    0.0000 R=    0.0000 C=    0.0000
 XYZ=   -3.0012   -2.8986    5.0543 Q=   -0.8200 A=    0.0000 R=    0.0000 C=    0.0000
 XYZ=   -3.5288   -2.9236    5.9034 Q=    0.4100 A=    0.0000 R=    0.0000 C=    0.0000
 XYZ=   -3.0316   -3.7972    4.6164 Q=    0.4100 A=    0.0000 R=    0.0000 C=    0.0000
 XYZ=    0.7585   -4.3909    5.9151 Q=   -0.8200 A=    0.0000 R=    0.0000 C=    0.0000
 XYZ=    1.6933   -4.0367    5.8912 Q=    0.4100 A=    0.0000 R=    0.0000 C=    0.0000
 XYZ=    0.1141   -3.6420    5.7603 Q=    0.4100 A=    0.0000 R=    0.0000 C=    0.0000
 XYZ=   -1.8539   -6.2652    1.3697 Q=   -0.8200 A=    0.0000 R=    0.0000 C=    0.0000
 XYZ=   -1.2014   -6.5459    0.6658 Q=    0.4100 A=    0.0000 R=    0.0000 C=    0.0000
 XYZ=   -2.6552   -5.8531    0.9359 Q=    0.4100 A=    0.0000 R=    0.0000 C=    0.0000
 XYZ=    5.0549   -5.6415    2.0714 Q=   -0.8200 A=    0.0000 R=    0.0000 C=    0.0000
 XYZ=    4.8119   -5.1151    1.2565 Q=    0.4100 A=    0.0000 R=    0.0000 C=    0.0000
 XYZ=    4.2516   -5.7344    2.6598 Q=    0.4100 A=    0.0000 R=    0.0000 C=    0.0000
 XYZ=    5.6531    3.1790    1.5850 Q=   -0.8200 A=    0.0000 R=    0.0000 C=    0.0000
 XYZ=    5.0757    3.9004    1.9673 Q=    0.4100 A=    0.0000 R=    0.0000 C=    0.0000
 XYZ=    5.1548    2.7017    0.8612 Q=    0.4100 A=    0.0000 R=    0.0000 C=    0.0000
 XYZ=    1.4867   -0.0766   -7.4485 Q=   -0.8200 A=    0.0000 R=    0.0000 C=    0.0000
 XYZ=    1.9454    0.5369   -8.0915 Q=    0.4100 A=    0.0000 R=    0.0000 C=    0.0000
 XYZ=    0.5499    0.2390   -7.2975 Q=    0.4100 A=    0.0000 R=    0.0000 C=    0.0000
 XYZ=    1.5963    6.2933    3.5294 Q=   -0.8200 A=    0.0000 R=    0.0000 C=    0.0000
 XYZ=    0.9072    6.9827    3.3063 Q=    0.4100 A=    0.0000 R=    0.0000 C=    0.0000
 XYZ=    1.9775    5.9175    2.6847 Q=    0.4100 A=    0.0000 R=    0.0000 C=    0.0000
 XYZ=   -1.8729    5.2262   -5.9771 Q=   -0.8200 A=    0.0000 R=    0.0000 C=    0.0000
 XYZ=   -1.0113    5.2680   -5.4713 Q=    0.4100 A=    0.0000 R=    0.0000 C=    0.0000
 XYZ=   -2.4449    6.0072   -5.7261 Q=    0.4100 A=    0.0000 R=    0.0000 C=    0.0000
 XYZ=    0.6228    8.1571    1.9762 Q=   -0.8200 A=    0.0000 R=    0.0000 C=    0.0000
 XYZ=    0.2049    8.9857    2.3487 Q=    0.4100 A=    0.0000 R=    0.0000 C=    0.0000
 XYZ=   -0.0581    7.6482    1.4496 Q=    0.4100 A=    0.0000 R=    0.0000 C=    0.0000
 XYZ=   -3.4203    6.7057   -4.4650 Q=   -0.8200 A=    0.0000 R=    0.0000 C=    0.0000
 XYZ=   -3.0726    6.8917   -3.5460 Q=    0.4100 A=    0.0000 R=    0.0000 C=    0.0000
 XYZ=   -4.1413    6.0145   -4.4150 Q=    0.4100 A=    0.0000 R=    0.0000 C=    0.0000
 XYZ=    4.6565    4.5247   -3.4855 Q=   -0.8200 A=    0.0000 R=    0.0000 C=    0.0000
 XYZ=    5.5825    4.8329   -3.2676 Q=    0.4100 A=    0.0000 R=    0.0000 C=    0.0000
 XYZ=    4.4597    4.7144   -4.4474 Q=    0.4100 A=    0.0000 R=    0.0000 C=    0.0000
 XYZ=    3.3006    6.1658   -2.4061 Q=   -0.8200 A=    0.0000 R=    0.0000 C=    0.0000
 XYZ=    3.8881    6.5487   -1.6932 Q=    0.4100 A=    0.0000 R=    0.0000 C=    0.0000
 XYZ=    3.7959    5.4487   -2.8965 Q=    0.4100 A=    0.0000 R=    0.0000 C=    0.0000
 XYZ=    1.7747    0.8323    6.2010 Q=   -0.8200 A=    0.0000 R=    0.0000 C=    0.0000
 XYZ=    2.3105    0.1421    6.6873 Q=    0.4100 A=    0.0000 R=    0.0000 C=    0.0000
 XYZ=    2.3842    1.3947    5.6422 Q=    0.4100 A=    0.0000 R=    0.0000 C=    0.0000
 XYZ=   -2.4518    0.5798    7.2234 Q=   -0.8200 A=    0.0000 R=    0.0000 C=    0.0000
 XYZ=   -2.2286   -0.3842    7.3681 Q=    0.4100 A=    0.0000 R=    0.0000 C=    0.0000
 XYZ=   -2.8094    0.7038    6.2978 Q=    0.4100 A=    0.0000 R=    0.0000 C=    0.0000
 XYZ=   -7.5318    2.6093    0.2713 Q=   -0.8200 A=    0.0000 R=    0.0000 C=    0.0000
 XYZ=   -6.6500    3.0712    0.3669 Q=    0.4100 A=    0.0000 R=    0.0000 C=    0.0000
 XYZ=   -7.6733    2.3559   -0.6857 Q=    0.4100 A=    0.0000 R=    0.0000 C=    0.0000
 XYZ=    4.5331    0.5119    4.3870 Q=   -0.8200 A=    0.0000 R=    0.0000 C=    0.0000
 XYZ=    5.0502    0.0810    5.1266 Q=    0.4100 A=    0.0000 R=    0.0000 C=    0.0000
 XYZ=    3.9970    1.2721    4.7541 Q=    0.4100 A=    0.0000 R=    0.0000 C=    0.0000
 XYZ=    7.1998    1.4955   -1.4069 Q=   -0.8200 A=    0.0000 R=    0.0000 C=    0.0000
 XYZ=    6.4745    1.9383   -1.9342 Q=    0.4100 A=    0.0000 R=    0.0000 C=    0.0000
 XYZ=    6.7977    1.0045   -0.6341 Q=    0.4100 A=    0.0000 R=    0.0000 C=    0.0000
 XYZ=    0.9518   -6.2099    4.2830 Q=   -0.8200 A=    0.0000 R=    0.0000 C=    0.0000
 XYZ=    0.2910   -6.9131    4.5457 Q=    0.4100 A=    0.0000 R=    0.0000 C=    0.0000
 XYZ=    0.9434   -5.4747    4.9608 Q=    0.4100 A=    0.0000 R=    0.0000 C=    0.0000
 XYZ=   -7.2027   -1.6780    2.3853 Q=   -0.8200 A=    0.0000 R=    0.0000 C=    0.0000
 XYZ=   -6.4164   -1.1232    2.6575 Q=    0.4100 A=    0.0000 R=    0.0000 C=    0.0000
 XYZ=   -6.9358   -2.6412    2.3532 Q=    0.4100 A=    0.0000 R=    0.0000 C=    0.0000
 XYZ=    4.5425    5.0259    2.5945 Q=   -0.8200 A=    0.0000 R=    0.0000 C=    0.0000
 XYZ=    4.2338    4.6949    3.4863 Q=    0.4100 A=    0.0000 R=    0.0000 C=    0.0000
 XYZ=    3.7680    5.4185    2.0985 Q=    0.4100 A=    0.0000 R=    0.0000 C=    0.0000
 XYZ=   -1.9485    8.9688   -1.2407 Q=   -0.8200 A=    0.0000 R=    0.0000 C=    0.0000
 XYZ=   -1.1998    9.5834   -1.4891 Q=    0.4100 A=    0.0000 R=    0.0000 C=    0.0000
 XYZ=   -1.7304    8.5085   -0.3801 Q=    0.4100 A=    0.0000 R=    0.0000 C=    0.0000
 XYZ=   -1.9997   -1.7836    7.6654 Q=   -0.8200 A=    0.0000 R=    0.0000 C=    0.0000
 XYZ=   -1.5036   -2.1414    6.8743 Q=    0.4100 A=    0.0000 R=    0.0000 C=    0.0000
 XYZ=   -1.7129   -2.2739    8.4884 Q=    0.4100 A=    0.0000 R=    0.0000 C=    0.0000
 XYZ=   -7.3262    1.0238    4.1522 Q=   -0.8200 A=    0.0000 R=    0.0000 C=    0.0000
 XYZ=   -6.4687    0.6206    3.8327 Q=    0.4100 A=    0.0000 R=    0.0000 C=    0.0000
 XYZ=   -7.6989    0.4685    4.8957 Q=    0.4100 A=    0.0000 R=    0.0000 C=    0.0000
 XYZ=    3.3724    2.4152    5.2721 Q=   -0.8200 A=    0.0000 R=    0.0000 C=    0.0000
 XYZ=    3.9566    2.5216    6.0767 Q=    0.4100 A=    0.0000 R=    0.0000 C=    0.0000
 XYZ=    3.0655    3.3149    4.9618 Q=    0.4100 A=    0.0000 R=    0.0000 C=    0.0000
 XYZ=    6.3259   -5.3289   -2.6662 Q=   -0.8200 A=    0.0000 R=    0.0000 C=    0.0000
 XYZ=    5.4547   -5.2129   -3.1433 Q=    0.4100 A=    0.0000 R=    0.0000 C=    0.0000
 XYZ=    7.0686   -5.3730   -3.3345 Q=    0.4100 A=    0.0000 R=    0.0000 C=    0.0000
 XYZ=   -4.0280   -5.9226    0.4999 Q=   -0.8200 A=    0.0000 R=    0.0000 C=    0.0000
 XYZ=   -3.9214   -6.7830    0.0014 Q=    0.4100 A=    0.0000 R=    0.0000 C=    0.0000
 XYZ=   -4.6670   -5.3302    0.0092 Q=    0.4100 A=    0.0000 R=    0.0000 C=    0.0000
 XYZ=    3.1277   -5.9293    3.5666 Q=   -0.8200 A=    0.0000 R=    0.0000 C=    0.0000
 XYZ=    3.6415   -5.5511    4.3366 Q=    0.4100 A=    0.0000 R=    0.0000 C=    0.0000
 XYZ=    2.2289   -6.2333    3.8828 Q=    0.4100 A=    0.0000 R=    0.0000 C=    0.0000
 XYZ=    3.1221    4.6965    4.6958 Q=   -0.8200 A=    0.0000 R=    0.0000 C=    0.0000
 XYZ=    3.6663    5.2334    5.3406 Q=    0.4100 A=    0.0000 R=    0.0000 C=    0.0000
 XYZ=    2.4193    5.2788    4.2871 Q=    0.4100 A=    0.0000 R=    0.0000 C=    0.0000
 XYZ=    2.4949    8.1927    0.3742 Q=   -0.8200 A=    0.0000 R=    0.0000 C=    0.0000
 XYZ=    1.8949    8.3005    1.1670 Q=    0.4100 A=    0.0000 R=    0.0000 C=    0.0000
 XYZ=    1.9442    8.1744   -0.4604 Q=    0.4100 A=    0.0000 R=    0.0000 C=    0.0000
 XYZ=   -6.4471    5.5293   -0.9413 Q=   -0.8200 A=    0.0000 R=    0.0000 C=    0.0000
 XYZ=   -6.2811    6.5142   -0.9919 Q=    0.4100 A=    0.0000 R=    0.0000 C=    0.0000
 XYZ=   -7.2024    5.2869   -1.5503 Q=    0.4100 A=    0.0000 R=    0.0000 C=    0.0000
 XYZ=    4.2231   -3.1459   -6.9450 Q=   -0.8200 A=    0.0000 R=    0.0000 C=    0.0000
 XYZ=    4.4881   -2.8861   -6.0164 Q=    0.4100 A=    0.0000 R=    0.0000 C=    0.0000
 XYZ=    5.0408   -3.3757   -7.4729 Q=    0.4100 A=    0.0000 R=    0.0000 C=    0.0000
 XYZ=   -5.1090   -5.8085    2.6746 Q=   -0.8200 A=    0.0000 R=    0.0000 C=    0.0000
 XYZ=   -4.3680   -5.3864    3.1969 Q=    0.4100 A=    0.0000 R=    0.0000 C=    0.0000
 XYZ=   -4.8188   -5.9337    1.7259 Q=    0.4100 A=    0.0000 R=    0.0000 C=    0.0000
 XYZ=   -5.9472    3.2443   -5.6016 Q=   -0.8200 A=    0.0000 R=    0.0000 C=    0.0000
 XYZ=   -6.1620    3.3517   -6.5724 Q=    0.4100 A=    0.0000 R=    0.0000 C=    0.0000
 XYZ=   -5.2255    2.5605   -5.4936 Q=    0.4100 A=    0.0000 R=    0.0000 C=    0.0000
 XYZ=   -5.7883   -1.9891    5.6240 Q=   -0.8200 A=    0.0000 R=    0.0000 C=    0.0000
 XYZ=   -5.2988   -1.2494    5.1621 Q=    0.4100 A=    0.0000 R=    0.0000 C=    0.0000
 XYZ=   -5.2371   -2.3282    6.3864 Q=    0.4100 A=    0.0000 R=    0.0000 C=    0.0000
 XYZ=    3.2970   -1.4128   -8.2677 Q=   -0.8200 A=    0.0000 R=    0.0000 C=    0.0000
 XYZ=    3.6076   -2.1129   -7.6247 Q=    0.4100 A=    0.0000 R=    0.0000 C=    0.0000
 XYZ=    2.5003   -0.9421   -7.8887 Q=    0.4100 A=    0.0000 R=    0.0000 C=    0.0000
 XYZ=    0.6085    2.7165    7.5468 Q=   -0.8200 A=    0.0000 R=    0.0000 C=    0.0000
 XYZ=    1.0024    1.9404    7.0542 Q=    0.4100 A=    0.0000 R=    0.0000 C=    0.0000
 XYZ=   -0.3546    2.5324    7.7433 Q=    0.4100 A=    0.0000 R=    0.0000 C=    0.0000
 XYZ=    1.4863    3.7122   -8.4907 Q=   -0.8200 A=    0.0000 R=    0.0000 C=    0.0000
 XYZ=    1.4814    3.9270   -7.5140 Q=    0.4100 A=    0.0000 R=    0.0000 C=    0.0000
 XYZ=    2.0463    2.8992   -8.6503 Q=    0.4100 A=    0.0000 R=    0.0000 C=    0.0000
 XYZ=    6.3941   -3.7830    2.7383 Q=   -0.8200 A=    0.0000 R=    0.0000 C=    0.0000
 XYZ=    6.0182   -3.3433    3.5541 Q=    0.4100 A=    0.0000 R=    0.0000 C=    0.0000
 XYZ=    5.9948   -4.6942    2.6370 Q=    0.4100 A=    0.0000 R=    0.0000 C=    0.0000
 XYZ=    3.1395   -0.9540    7.1387 Q=   -0.8200 A=    0.0000 R=    0.0000 C=    0.0000
 XYZ=    3.3899   -0.5540    8.0204 Q=    0.4100 A=    0.0000 R=    0.0000 C=    0.0000
 XYZ=    3.8889   -0.8247    6.4893 Q=    0.4100 A=    0.0000 R=    0.0000 C=    0.0000
 XYZ=    2.0063    5.1804   -6.6418 Q=   -0.8200 A=    0.0000 R=    0.0000 C=    0.0000
 XYZ=    2.9432    5.1613   -6.2929 Q=    0.4100 A=    0.0000 R=    0.0000 C=    0.0000
 XYZ=    2.0235    5.2374   -7.6400 Q=    0.4100 A=    0.0000 R=    0.0000 C=    0.0000
 XYZ=    7.5231   -3.9846   -1.2683 Q=   -0.8200 A=    0.0000 R=    0.0000 C=    0.0000
 XYZ=    8.4933   -4.2209   -1.3224 Q=    0.4100 A=    0.0000 R=    0.0000 C=    0.0000
 XYZ=    7.0050   -4.5557   -1.9051 Q=    0.4100 A=    0.0000 R=    0.0000 C=    0.0000
 XYZ=    0.1931    6.7971    5.5354 Q=   -0.8200 A=    0.0000 R=    0.0000 C=    0.0000
 XYZ=    0.7147    6.4043    4.7779 Q=    0.4100 A=    0.0000 R=    0.0000 C=    0.0000
 XYZ=    0.1728    6.1495    6.2972 Q=    0.4100 A=    0.0000 R=    0.0000 C=    0.0000
 XYZ=    8.4421    0.2472    1.1445 Q=   -0.8200 A=    0.0000 R=    0.0000 C=    0.0000
 XYZ=    8.6202   -0.1733    2.0342 Q=    0.4100 A=    0.0000 R=    0.0000 C=    0.0000
 XYZ=    7.4563    0.2688    0.9775 Q=    0.4100 A=    0.0000 R=    0.0000 C=    0.0000
 XYZ=   -7.4756    1.9042   -1.8743 Q=   -0.8200 A=    0.0000 R=    0.0000 C=    0.0000
 XYZ=   -7.7308    0.9392   -1.9357 Q=    0.4100 A=    0.0000 R=    0.0000 C=    0.0000
 XYZ=   -7.5850    2.3354   -2.7699 Q=    0.4100 A=    0.0000 R=    0.0000 C=    0.0000
 XYZ=    0.2886    9.7926   -2.0049 Q=   -0.8200 A=    0.0000 R=    0.0000 C=    0.0000
 XYZ=    0.0400   10.1685   -2.8976 Q=    0.4100 A=    0.0000 R=    0.0000 C=    0.0000
 XYZ=    0.6979    8.8883   -2.1264 Q=    0.4100 A=    0.0000 R=    0.0000 C=    0.0000
 XYZ=   -1.8423   -8.5044    2.3588 Q=   -0.8200 A=    0.0000 R=    0.0000 C=    0.0000
 XYZ=   -1.9485   -7.6186    1.9069 Q=    0.4100 A=    0.0000 R=    0.0000 C=    0.0000
 XYZ=   -0.9919   -8.9337    2.0548 Q=    0.4100 A=    0.0000 R=    0.0000 C=    0.0000
 XYZ=    6.3781    2.1661    3.3563 Q=   -0.8200 A=    0.0000 R=    0.0000 C=    0.0000
 XYZ=    6.0904    2.4355    2.4372 Q=    0.4100 A=    0.0000 R=    0.0000 C=    0.0000
 XYZ=    5.6772    1.5833    3.7674 Q=    0.4100 A=    0.0000 R=    0.0000 C=    0.0000
 XYZ=    7.8486   -4.3183    1.0964 Q=   -0.8200 A=    0.0000 R=    0.0000 C=    0.0000
 XYZ=    7.3164   -3.9635    1.8651 Q=    0.4100 A=    0.0000 R=    0.0000 C=    0.0000
 XYZ=    7.4621   -3.9792    0.2387 Q=    0.4100 A=    0.0000 R=    0.0000 C=    0.0000
 XYZ=    7.9661   -0.5684   -2.3828 Q=   -0.8200 A=    0.0000 R=    0.0000 C=    0.0000
 XYZ=    7.6642    0.3365   -2.0827 Q=    0.4100 A=    0.0000 R=    0.0000 C=    0.0000
 XYZ=    8.5705   -0.9644   -1.6914 Q=    0.4100 A=    0.0000 R=    0.0000 C=    0.0000
 XYZ=   -6.6201    4.7669    3.0694 Q=   -0.8200 A=    0.0000 R=    0.0000 C=    0.0000
 XYZ=   -7.3951    5.3285    2.7796 Q=    0.4100 A=    0.0000 R=    0.0000 C=    0.0000
 XYZ=   -6.9474    4.0215    3.6501 Q=    0.4100 A=    0.0000 R=    0.0000 C=    0.0000
 XYZ=    4.3183    4.9383   -5.8896 Q=   -0.8200 A=    0.0000 R=    0.0000 C=    0.0000
 XYZ=    5.0131    5.6575   -5.8939 Q=    0.4100 A=    0.0000 R=    0.0000 C=    0.0000
 XYZ=    4.6575    4.1442   -6.3940 Q=    0.4100 A=    0.0000 R=    0.0000 C=    0.0000
 XYZ=   -7.7476   -1.7619    0.0896 Q=   -0.8200 A=    0.0000 R=    0.0000 C=    0.0000
 XYZ=   -7.4406   -1.6003    1.0274 Q=    0.4100 A=    0.0000 R=    0.0000 C=    0.0000
 XYZ=   -7.8120   -2.7462   -0.0750 Q=    0.4100 A=    0.0000 R=    0.0000 C=    0.0000
 XYZ=   -2.0061    4.5640   -8.2037 Q=   -0.8200 A=    0.0000 R=    0.0000 C=    0.0000
 XYZ=   -1.9917    4.7414   -7.2197 Q=    0.4100 A=    0.0000 R=    0.0000 C=    0.0000
 XYZ=   -2.6804    5.1598   -8.6399 Q=    0.4100 A=    0.0000 R=    0.0000 C=    0.0000
 XYZ=   -5.5495    6.6271    3.9381 Q=   -0.8200 A=    0.0000 R=    0.0000 C=    0.0000
 XYZ=   -6.3567    6.9926    4.4017 Q=    0.4100 A=    0.0000 R=    0.0000 C=    0.0000
 XYZ=   -5.7861    5.7677    3.4849 Q=    0.4100 A=    0.0000 R=    0.0000 C=    0.0000
 XYZ=    0.0908    5.1550    7.4296 Q=   -0.8200 A=    0.0000 R=    0.0000 C=    0.0000
 XYZ=    0.4692    5.2014    8.3541 Q=    0.4100 A=    0.0000 R=    0.0000 C=    0.0000
 XYZ=    0.1666    4.2192    7.0851 Q=    0.4100 A=    0.0000 R=    0.0000 C=    0.0000
 XYZ=    4.4149    7.3126   -0.7296 Q=   -0.8200 A=    0.0000 R=    0.0000 C=    0.0000
 XYZ=    3.7201    7.8496   -0.2513 Q=    0.4100 A=    0.0000 R=    0.0000 C=    0.0000
 XYZ=    5.3178    7.7065   -0.5572 Q=    0.4100 A=    0.0000 R=    0.0000 C=    0.0000
 XYZ=   -8.6657    1.7417    2.1233 Q=   -0.8200 A=    0.0000 R=    0.0000 C=    0.0000
 XYZ=   -8.1554    1.8195    1.2669 Q=    0.4100 A=    0.0000 R=    0.0000 C=    0.0000
 XYZ=   -8.0256    1.7116    2.8911 Q=    0.4100 A=    0.0000 R=    0.0000 C=    0.0000
 XYZ=   -4.6864    1.6504   -7.8224 Q=   -0.8200 A=    0.0000 R=    0.0000 C=    0.0000
 XYZ=   -4.7969    0.7584   -8.2608 Q=    0.4100 A=    0.0000 R=    0.0000 C=    0.0000
 XYZ=   -4.4018    1.5219   -6.8724 Q=    0.4100 A=    0.0000 R=    0.0000 C=    0.0000
 XYZ=   -1.7824    2.5667    8.2966 Q=   -0.8200 A=    0.0000 R=    0.0000 C=    0.0000
 XYZ=   -2.1633    1.7205    7.9239 Q=    0.4100 A=    0.0000 R=    0.0000 C=    0.0000
 XYZ=   -1.6959    2.4843    9.2894 Q=    0.4100 A=    0.0000 R=    0.0000 C=    0.0000
 XYZ=   -4.3049    9.1176   -1.8427 Q=   -0.8200 A=    0.0000 R=    0.0000 C=    0.0000
 XYZ=   -4.8055    9.8794   -1.4315 Q=    0.4100 A=    0.0000 R=    0.0000 C=    0.0000
 XYZ=   -3.3489    9.1509   -1.5511 Q=    0.4100 A=    0.0000 R=    0.0000 C=    0.0000
 XYZ=    6.5848    0.3333   -5.9076 Q=   -0.8200 A=    0.0000 R=    0.0000 C=    0.0000
 XYZ=    7.0107    1.2347   -5.8287 Q=    0.4100 A=    0.0000 R=    0.0000 C=    0.0000
 XYZ=    7.2814   -0.3754   -5.7951 Q=    0.4100 A=    0.0000 R=    0.0000 C=    0.0000
 XYZ=    5.9783   -7.3258   -1.4315 Q=   -0.8200 A=    0.0000 R=    0.0000 C=    0.0000
 XYZ=    6.7656   -7.8349   -1.0837 Q=    0.4100 A=    0.0000 R=    0.0000 C=    0.0000
 XYZ=    6.2851   -6.4484   -1.8003 Q=    0.4100 A=    0.0000 R=    0.0000 C=    0.0000
 XYZ=   -6.6398   -4.0230    2.3845 Q=   -0.8200 A=    0.0000 R=    0.0000 C=    0.0000
 XYZ=   -7.1015   -3.8485    3.2542 Q=    0.4100 A=    0.0000 R=    0.0000 C=    0.0000
 XYZ=   -6.0639   -4.8360    2.4701 Q=    0.4100 A=    0.0000 R=    0.0000 C=    0.0000
 XYZ=   -5.9893    7.7693   -0.9542 Q=   -0.8200 A=    0.0000 R=    0.0000 C=    0.0000
 XYZ=   -5.1783    8.2226   -1.3240 Q=    0.4100 A=    0.0000 R=    0.0000 C=    0.0000
 XYZ=   -6.4891    8.4067   -0.3678 Q=    0.4100 A=    0.0000 R=    0.0000 C=    0.0000
 XYZ=    5.5001   -0.1026   -7.8500 Q=   -0.8200 A=    0.0000 R=    0.0000 C=    0.0000
 XYZ=    5.7731   -0.0636   -6.8887 Q=    0.4100 A=    0.0000 R=    0.0000 C=    0.0000
 XYZ=    4.7644   -0.7708   -7.9606 Q=    0.4100 A=    0.0000 R=    0.0000 C=    0.0000
 XYZ=    2.4201    1.4992   -8.8169 Q=   -0.8200 A=    0.0000 R=    0.0000 C=    0.0000
 XYZ=    3.4069    1.6291   -8.9139 Q=    0.4100 A=    0.0000 R=    0.0000 C=    0.0000
 XYZ=    2.0118    1.3612   -9.7192 Q=    0.4100 A=    0.0000 R=    0.0000 C=    0.0000
 XYZ=   -4.0228   -2.8639    7.0770 Q=   -0.8200 A=    0.0000 R=    0.0000 C=    0.0000
 XYZ=   -3.3833   -2.1977    7.4609 Q=    0.4100 A=    0.0000 R=    0.0000 C=    0.0000
 XYZ=   -4.0351   -3.6830    7.6506 Q=    0.4100 A=    0.0000 R=    0.0000 C=    0.0000
 XYZ=   -0.3598   -4.9294    8.2446 Q=   -0.8200 A=    0.0000 R=    0.0000 C=    0.0000
 XYZ=    0.1821   -4.7038    7.4349 Q=    0.4100 A=    0.0000 R=    0.0000 C=    0.0000
 XYZ=    0.2475   -5.2380    8.9767 Q=    0.4100 A=    0.0000 R=    0.0000 C=    0.0000
 XYZ=   -7.4516    3.4631    4.8915 Q=   -0.8200 A=    0.0000 R=    0.0000 C=    0.0000
 XYZ=   -7.4830    3.4349    5.8907 Q=    0.4100 A=    0.0000 R=    0.0000 C=    0.0000
 XYZ=   -7.3954    2.5311    4.5334 Q=    0.4100 A=    0.0000 R=    0.0000 C=    0.0000
 XYZ=   -7.7484    3.1470   -3.9465 Q=   -0.8200 A=    0.0000 R=    0.0000 C=    0.0000
 XYZ=   -7.0700    3.2738   -4.6702 Q=    0.4100 A=    0.0000 R=    0.0000 C=    0.0000
 XYZ=   -8.5305    2.6395   -4.3082 Q=    0.4100 A=    0.0000 R=    0.0000 C=    0.0000
 XYZ=    5.3144   -0.7554    6.2677 Q=   -0.8200 A=    0.0000 R=    0.0000 C=    0.0000
 XYZ=    5.7487   -0.1661    6.9490 Q=    0.4100 A=    0.0000 R=    0.0000 C=    0.0000
 XYZ=    5.7075   -1.6733    6.3219 Q=    0.4100 A=    0.0000 R=    0.0000 C=    0.0000
 XYZ=   -8.2267   -0.4362   -1.8465 Q=   -0.8200 A=    0.0000 R=    0.0000 C=    0.0000
 XYZ=   -8.2880   -1.1734   -2.5195 Q=    0.4100 A=    0.0000 R=    0.0000 C=    0.0000
 XYZ=   -8.1008   -0.8271   -0.9347 Q=    0.4100 A=    0.0000 R=    0.0000 C=    0.0000
 XYZ=    7.1541   -6.5619    1.5724 Q=   -0.8200 A=    0.0000 R=    0.0000 C=    0.0000
 XYZ=    7.5144   -5.6296    1.5415 Q=    0.4100 A=    0.0000 R=    0.0000 C=    0.0000
 XYZ=    6.1650   -6.5324    1.7169 Q=    0.4100 A=    0.0000 R=    0.0000 C=    0.0000
 XYZ=   -4.2453    9.0047   -4.3196 Q=   -0.8200 A=    0.0000 R=    0.0000 C=    0.0000
 XYZ=   -4.4391    9.0130   -3.3385 Q=    0.4100 A=    0.0000 R=    0.0000 C=    0.0000
 XYZ=   -3.8565    8.1195   -4.5750 Q=    0.4100 A=    0.0000 R=    0.0000 C=    0.0000
 XYZ=   -2.2234    4.8940    7.5806 Q=   -0.8200 A=    0.0000 R=    0.0000 C=    0.0000
 XYZ=   -1.2879    5.1943    7.3945 Q=    0.4100 A=    0.0000 R=    0.0000 C=    0.0000
 XYZ=   -2.2282    3.9102    7.7599 Q=    0.4100 A=    0.0000 R=    0.0000 C=    0.0000
 XYZ=   -4.1246    8.1836    2.9728 Q=   -0.8200 A=    0.0000 R=    0.0000 C=    0.0000
 XYZ=   -4.7594    7.5032    3.3391 Q=    0.4100 A=    0.0000 R=    0.0000 C=    0.0000
 XYZ=   -4.4504    9.1008    3.2023 Q=    0.4100 A=    0.0000 R=    0.0000 C=    0.0000
 XYZ=   -2.6492    9.5923    1.7663 Q=   -0.8200 A=    0.0000 R=    0.0000 C=    0.0000
 XYZ=   -3.2581    8.9673    2.2549 Q=    0.4100 A=    0.0000 R=    0.0000 C=    0.0000
 XYZ=   -3.1941   10.2433    1.2378 Q=    0.4100 A=    0.0000 R=    0.0000 C=    0.0000
 XYZ=    6.8084    5.0271   -2.8787 Q=   -0.8200 A=    0.0000 R=    0.0000 C=    0.0000
 XYZ=    7.4294    4.4038   -2.4034 Q=    0.4100 A=    0.0000 R=    0.0000 C=    0.0000
 XYZ=    6.8918    5.9434   -2.4870 Q=    0.4100 A=    0.0000 R=    0.0000 C=    0.0000
 XYZ=    8.3795    3.4795   -1.6619 Q=   -0.8200 A=    0.0000 R=    0.0000 C=    0.0000
 XYZ=    8.0301    2.5487   -1.5550 Q=    0.4100 A=    0.0000 R=    0.0000 C=    0.0000
 XYZ=    8.8766    3.7458   -0.8360 Q=    0.4100 A=    0.0000 R=    0.0000 C=    0.0000
 XYZ=   -0.9997   -7.8551    4.4544 Q=   -0.8200 A=    0.0000 R=    0.0000 C=    0.0000
 XYZ=   -1.7080   -7.7937    5.1577 Q=    0.4100 A=    0.0000 R=    0.0000 C=    0.0000
 XYZ=   -1.4099   -8.1566    3.5936 Q=    0.4100 A=    0.0000 R=    0.0000 C=    0.0000
 XYZ=   -7.5115   -4.2050    0.1180 Q=   -0.8200 A=    0.0000 R=    0.0000 C=    0.0000
 XYZ=   -7.0005   -4.7028   -0.5828 Q=    0.4100 A=    0.0000 R=    0.0000 C=    0.0000
 XYZ=   -7.0682   -4.3300    1.0057 Q=    0.4100 A=    0.0000 R=    0.0000 C=    0.0000
 XYZ=    9.2705   -1.3077   -0.5116 Q=   -0.8200 A=    0.0000 R=    0.0000 C=    0.0000
 XYZ=    9.7470   -1.9891    0.0440 Q=    0.4100 A=    0.0000 R=    0.0000 C=    0.0000
 XYZ=    8.8676   -0.6138    0.0853 Q=    0.4100 A=    0.0000 R=    0.0000 C=    0.0000
 XYZ=    5.7010    3.3367   -7.1296 Q=   -0.8200 A=    0.0000 R=    0.0000 C=    0.0000
 XYZ=    6.1537    4.1022   -7.5869 Q=    0.4100 A=    0.0000 R=    0.0000 C=    0.0000
 XYZ=    6.3876    2.7588   -6.6885 Q=    0.4100 A=    0.0000 R=    0.0000 C=    0.0000
 XYZ=   -8.0327    5.1331   -2.5010 Q=   -0.8200 A=    0.0000 R=    0.0000 C=    0.0000
 XYZ=   -8.1185    5.9910   -3.0076 Q=    0.4100 A=    0.0000 R=    0.0000 C=    0.0000
 XYZ=   -8.0167    4.3669   -3.1433 Q=    0.4100 A=    0.0000 R=    0.0000 C=    0.0000
 XYZ=   -2.7738    2.6072   -9.0046 Q=   -0.8200 A=    0.0000 R=    0.0000 C=    0.0000
 XYZ=   -3.4753    2.1519   -8.4562 Q=    0.4100 A=    0.0000 R=    0.0000 C=    0.0000
 XYZ=   -2.4058    3.3853   -8.4955 Q=    0.4100 A=    0.0000 R=    0.0000 C=    0.0000
 XYZ=   -9.2352   -0.6829    2.3932 Q=   -0.8200 A=    0.0000 R=    0.0000 C=    0.0000
 XYZ=   -8.3956   -1.2218    2.3238 Q=    0.4100 A=    0.0000 R=    0.0000 C=    0.0000
 XYZ=   -9.0176    0.2877    2.2906 Q=    0.4100 A=    0.0000 R=    0.0000 C=    0.0000
 XYZ=   -3.8382   -7.8124   -0.6810 Q=   -0.8200 A=    0.0000 R=    0.0000 C=    0.0000
 XYZ=   -4.7884   -7.8138   -0.9930 Q=    0.4100 A=    0.0000 R=    0.0000 C=    0.0000
 XYZ=   -3.5457   -8.7512   -0.4990 Q=    0.4100 A=    0.0000 R=    0.0000 C=    0.0000
 XYZ=    7.6570    4.4539    2.2467 Q=   -0.8200 A=    0.0000 R=    0.0000 C=    0.0000
 XYZ=    7.9451    4.1080    3.1397 Q=    0.4100 A=    0.0000 R=    0.0000 C=    0.0000
 XYZ=    6.8081    4.0021    1.9723 Q=    0.4100 A=    0.0000 R=    0.0000 C=    0.0000
 XYZ=    6.5344    6.5183    2.0378 Q=   -0.8200 A=    0.0000 R=    0.0000 C=    0.0000
 XYZ=    5.6138    6.1437    2.1488 Q=    0.4100 A=    0.0000 R=    0.0000 C=    0.0000
 XYZ=    7.1908    5.7690    1.9502 Q=    0.4100 A=    0.0000 R=    0.0000 C=    0.0000
 XYZ=   -3.8753    6.5005    6.7221 Q=   -0.8200 A=    0.0000 R=    0.0000 C=    0.0000
 XYZ=   -3.6819    7.0529    5.9112 Q=    0.4100 A=    0.0000 R=    0.0000 C=    0.0000
 XYZ=   -3.0971    5.9015    6.9108 Q=    0.4100 A=    0.0000 R=    0.0000 C=    0.0000
 XYZ=    3.7224   -5.1211   -8.3050 Q=   -0.8200 A=    0.0000 R=    0.0000 C=    0.0000
 XYZ=    4.5890   -5.1070   -8.8039 Q=    0.4100 A=    0.0000 R=    0.0000 C=    0.0000
 XYZ=    3.6658   -4.3173   -7.7127 Q=    0.4100 A=    0.0000 R=    0.0000 C=    0.0000
 XYZ=   -3.3955    8.2094    5.1301 Q=   -0.8200 A=    0.0000 R=    0.0000 C=    0.0000
 XYZ=   -3.7594    8.0512    4.2122 Q=    0.4100 A=    0.0000 R=    0.0000 C=    0.0000
 XYZ=   -3.7212    9.0916    5.4703 Q=    0.4100 A=    0.0000 R=    0.0000 C=    0.0000
 XYZ=   -1.0574    8.6496    5.2011 Q=   -0.8200 A=    0.0000 R=    0.0000 C=    0.0000
 XYZ=   -0.5067    7.8224    5.3126 Q=    0.4100 A=    0.0000 R=    0.0000 C=    0.0000
 XYZ=   -2.0158    8.3965    5.0686 Q=    0.4100 A=    0.0000 R=    0.0000 C=    0.0000
 XYZ=   -7.4857   -3.5053    4.4427 Q=   -0.8200 A=    0.0000 R=    0.0000 C=    0.0000
 XYZ=   -8.3540   -3.0098    4.4203 Q=    0.4100 A=    0.0000 R=    0.0000 C=    0.0000
 XYZ=   -6.7823   -2.9267    4.8556 Q=    0.4100 A=    0.0000 R=    0.0000 C=    0.0000
 XYZ=   -0.5945    9.7552    3.0037 Q=   -0.8200 A=    0.0000 R=    0.0000 C=    0.0000
 XYZ=   -1.4556    9.7830    2.4961 Q=    0.4100 A=    0.0000 R=    0.0000 C=    0.0000
 XYZ=   -0.7663    9.4311    3.9340 Q=    0.4100 A=    0.0000 R=    0.0000 C=    0.0000
 XYZ=    4.8231    1.9240   -8.8015 Q=   -0.8200 A=    0.0000 R=    0.0000 C=    0.0000
 XYZ=    5.1492    2.6549   -8.2020 Q=    0.4100 A=    0.0000 R=    0.0000 C=    0.0000
 XYZ=    5.1071    1.0389   -8.4327 Q=    0.4100 A=    0.0000 R=    0.0000 C=    0.0000
 XYZ=   -6.4014   -5.5111   -1.3993 Q=   -0.8200 A=    0.0000 R=    0.0000 C=    0.0000
 XYZ=   -6.4600   -5.3150   -2.3782 Q=    0.4100 A=    0.0000 R=    0.0000 C=    0.0000
 XYZ=   -6.2113   -6.4837   -1.2650 Q=    0.4100 A=    0.0000 R=    0.0000 C=    0.0000
 XYZ=    9.6175   -0.4892   -3.9376 Q=   -0.8200 A=    0.0000 R=    0.0000 C=    0.0000
 XYZ=    8.7165   -0.4888   -3.5037 Q=    0.4100 A=    0.0000 R=    0.0000 C=    0.0000
 XYZ=   10.3221   -0.6333   -3.2426 Q=    0.4100 A=    0.0000 R=    0.0000 C=    0.0000
 XYZ=   -2.9032   -7.0628    5.7518 Q=   -0.8200 A=    0.0000 R=    0.0000 C=    0.0000
 XYZ=   -2.4933   -6.7993    6.6250 Q=    0.4100 A=    0.0000 R=    0.0000 C=    0.0000
 XYZ=   -3.6940   -7.6517    5.9190 Q=    0.4100 A=    0.0000 R=    0.0000 C=    0.0000
 XYZ=    7.5421    2.6078   -5.7663 Q=   -0.8200 A=    0.0000 R=    0.0000 C=    0.0000
 XYZ=    7.5421    3.5466   -5.4218 Q=    0.4100 A=    0.0000 R=    0.0000 C=    0.0000
 XYZ=    8.4666    2.2312   -5.7076 Q=    0.4100 A=    0.0000 R=    0.0000 C=    0.0000
 XYZ=   -6.1292   -6.9507    4.5394 Q=   -0.8200 A=    0.0000 R=    0.0000 C=    0.0000
 XYZ=   -5.5648   -6.5045    3.8450 Q=    0.4100 A=    0.0000 R=    0.0000 C=    0.0000
 XYZ=   -6.8210   -6.3085    4.8696 Q=    0.4100 A=    0.0000 R=    0.0000 C=    0.0000
 XYZ=   -0.2434    4.6020   -9.7290 Q=   -0.8200 A=    0.0000 R=    0.0000 C=    0.0000
 XYZ=   -1.0296    4.4977   -9.1198 Q=    0.4100 A=    0.0000 R=    0.0000 C=    0.0000
 XYZ=    0.5827    4.2828   -9.2645 Q=    0.4100 A=    0.0000 R=    0.0000 C=    0.0000
 XYZ=    9.9463   -3.2298    0.9808 Q=   -0.8200 A=    0.0000 R=    0.0000 C=    0.0000
 XYZ=    9.0088   -3.5750    0.9356 Q=    0.4100 A=    0.0000 R=    0.0000 C=    0.0000
 XYZ=   10.5563   -3.8577    0.4973 Q=    0.4100 A=    0.0000 R=    0.0000 C=    0.0000
 XYZ=    1.5232    3.2764    9.5366 Q=   -0.8200 A=    0.0000 R=    0.0000 C=    0.0000
 XYZ=    2.5199    3.2016    9.5048 Q=    0.4100 A=    0.0000 R=    0.0000 C=    0.0000
 XYZ=    1.1454    3.0830    8.6311 Q=    0.4100 A=    0.0000 R=    0.0000 C=    0.0000
 XYZ=   -7.9868   -0.5799    5.7397 Q=   -0.8200 A=    0.0000 R=    0.0000 C=    0.0000
 XYZ=   -8.6203   -1.2636    5.3772 Q=    0.4100 A=    0.0000 R=    0.0000 C=    0.0000
 XYZ=   -7.1523   -1.0324    6.0541 Q=    0.4100 A=    0.0000 R=    0.0000 C=    0.0000
 XYZ=    8.0173    4.7758   -4.9231 Q=   -0.8200 A=    0.0000 R=    0.0000 C=    0.0000
 XYZ=    7.5171    4.9615   -4.0772 Q=    0.4100 A=    0.0000 R=    0.0000 C=    0.0000
 XYZ=    8.9945    4.9247   -4.7719 Q=    0.4100 A=    0.0000 R=    0.0000 C=    0.0000
 XYZ=   -1.3399   -2.9866    9.4728 Q=   -0.8200 A=    0.0000 R=    0.0000 C=    0.0000
 XYZ=   -0.7741   -3.6390    8.9685 Q=    0.4100 A=    0.0000 R=    0.0000 C=    0.0000
 XYZ=   -2.1073   -3.4685    9.8959 Q=    0.4100 A=    0.0000 R=    0.0000 C=    0.0000
 XYZ=   -9.7222    4.5742    1.1034 Q=   -0.8200 A=    0.0000 R=    0.0000 C=    0.0000
 XYZ=   -9.1187    3.8147    0.8600 Q=    0.4100 A=    0.0000 R=    0.0000 C=    0.0000
 XYZ=  -10.4999    4.2271    1.6275 Q=    0.4100 A=    0.0000 R=    0.0000 C=    0.0000
 XYZ=    0.1474   11.3388   -0.2456 Q=   -0.8200 A=    0.0000 R=    0.0000 C=    0.0000
 XYZ=    1.0884   11.6417   -0.0947 Q=    0.4100 A=    0.0000 R=    0.0000 C=    0.0000
 XYZ=    0.1027   10.7946   -1.0834 Q=    0.4100 A=    0.0000 R=    0.0000 C=    0.0000
 XYZ=   -2.3252   -6.2881    7.8828 Q=   -0.8200 A=    0.0000 R=    0.0000 C=    0.0000
 XYZ=   -1.5839   -5.6195    7.9423 Q=    0.4100 A=    0.0000 R=    0.0000 C=    0.0000
 XYZ=   -3.2044   -5.8115    7.8801 Q=    0.4100 A=    0.0000 R=    0.0000 C=    0.0000
 XYZ=    4.8017    2.4689    6.9942 Q=   -0.8200 A=    0.0000 R=    0.0000 C=    0.0000
 XYZ=    5.5401    3.0046    6.5844 Q=    0.4100 A=    0.0000 R=    0.0000 C=    0.0000
 XYZ=    4.4527    2.9452    7.8013 Q=    0.4100 A=    0.0000 R=    0.0000 C=    0.0000
 XYZ=    3.0789   -2.3739  -10.3674 Q=   -0.8200 A=    0.0000 R=    0.0000 C=    0.0000
 XYZ=    3.1713   -1.8603   -9.5143 Q=    0.4100 A=    0.0000 R=    0.0000 C=    0.0000
 XYZ=    3.9654   -2.7611  -10.6209 Q=    0.4100 A=    0.0000 R=    0.0000 C=    0.0000
 XYZ=    7.9732   -5.3861   -4.3148 Q=   -0.8200 A=    0.0000 R=    0.0000 C=    0.0000
 XYZ=    7.9514   -5.1652   -5.2899 Q=    0.4100 A=    0.0000 R=    0.0000 C=    0.0000
 XYZ=    8.5489   -6.1905   -4.1681 Q=    0.4100 A=    0.0000 R=    0.0000 C=    0.0000
 XYZ=    8.2591   -1.2517   -5.6828 Q=   -0.8200 A=    0.0000 R=    0.0000 C=    0.0000
 XYZ=    8.9236   -1.0992   -4.9512 Q=    0.4100 A=    0.0000 R=    0.0000 C=    0.0000
 XYZ=    8.5170   -2.0660   -6.2029 Q=    0.4100 A=    0.0000 R=    0.0000 C=    0.0000
 XYZ=    7.9552   -7.8871   -0.1488 Q=   -0.8200 A=    0.0000 R=    0.0000 C=    0.0000
 XYZ=    7.6140   -7.2761    0.5655 Q=    0.4100 A=    0.0000 R=    0.0000 C=    0.0000
 XYZ=    8.5606   -8.5709    0.2587 Q=    0.4100 A=    0.0000 R=    0.0000 C=    0.0000
 XYZ=  -10.3556    0.1833   -1.4551 Q=   -0.8200 A=    0.0000 R=    0.0000 C=    0.0000
 XYZ=  -10.5183    1.1383   -1.7031 Q=    0.4100 A=    0.0000 R=    0.0000 C=    0.0000
 XYZ=   -9.4239   -0.0736   -1.7118 Q=    0.4100 A=    0.0000 R=    0.0000 C=    0.0000
 XYZ=   -2.6568   -0.9853  -10.2419 Q=   -0.8200 A=    0.0000 R=    0.0000 C=    0.0000
 XYZ=   -2.6953   -1.9513  -10.4977 Q=    0.4100 A=    0.0000 R=    0.0000 C=    0.0000
 XYZ=   -3.3160   -0.8075   -9.5112 Q=    0.4100 A=    0.0000 R=    0.0000 C=    0.0000
 XYZ=    8.0191    3.2859    4.6981 Q=   -0.8200 A=    0.0000 R=    0.0000 C=    0.0000
 XYZ=    7.3948    2.7772    4.1053 Q=    0.4100 A=    0.0000 R=    0.0000 C=    0.0000
 XYZ=    8.8122    2.7162    4.9140 Q=    0.4100 A=    0.0000 R=    0.0000 C=    0.0000
 XYZ=    3.9856    0.1088    8.9772 Q=   -0.8200 A=    0.0000 R=    0.0000 C=    0.0000
 XYZ=    4.9852    0.1365    8.9716 Q=    0.4100 A=    0.0000 R=    0.0000 C=    0.0000
 XYZ=    3.6258    1.0219    8.7854 Q=    0.4100 A=    0.0000 R=    0.0000 C=    0.0000
 XYZ=   -0.4908   10.6121   -4.0894 Q=   -0.8200 A=    0.0000 R=    0.0000 C=    0.0000
 XYZ=   -1.4676   10.6324   -4.3025 Q=    0.4100 A=    0.0000 R=    0.0000 C=    0.0000
 XYZ=    0.0318   10.4881   -4.9329 Q=    0.4100 A=    0.0000 R=    0.0000 C=    0.0000
 XYZ=    9.5658   -4.6483   -2.1105 Q=   -0.8200 A=    0.0000 R=    0.0000 C=    0.0000
 XYZ=    9.1560   -4.5002   -3.0106 Q=    0.4100 A=    0.0000 R=    0.0000 C=    0.0000
 XYZ=    9.4843   -5.6135   -1.8619 Q=    0.4100 A=    0.0000 R=    0.0000 C=    0.0000
 XYZ=  -10.0832    4.2307   -1.5083 Q=   -0.8200 A=    0.0000 R=    0.0000 C=    0.0000
 XYZ=   -9.3329    4.7326   -1.9386 Q=    0.4100 A=    0.0000 R=    0.0000 C=    0.0000
 XYZ=  -10.0304    4.3390   -0.5156 Q=    0.4100 A=    0.0000 R=    0.0000 C=    0.0000
 XYZ=   -0.1530   -0.6294  -10.8937 Q=   -0.8200 A=    0.0000 R=    0.0000 C=    0.0000
 XYZ=    0.2912   -1.5230  -10.9598 Q=    0.4100 A=    0.0000 R=    0.0000 C=    0.0000
 XYZ=   -1.0165   -0.7224  -10.3980 Q=    0.4100 A=    0.0000 R=    0.0000 C=    0.0000
 XYZ=    6.2635    6.1805   -6.1262 Q=   -0.8200 A=    0.0000 R=    0.0000 C=    0.0000
 XYZ=    6.9688    5.7772   -5.5431 Q=    0.4100 A=    0.0000 R=    0.0000 C=    0.0000
 XYZ=    6.4734    5.9881   -7.0848 Q=    0.4100 A=    0.0000 R=    0.0000 C=    0.0000
 XYZ=   -6.0262    5.4653    7.4576 Q=   -0.8200 A=    0.0000 R=    0.0000 C=    0.0000
 XYZ=   -6.8597    5.9890    7.2816 Q=    0.4100 A=    0.0000 R=    0.0000 C=    0.0000
 XYZ=   -5.2331    5.9831    7.1367 Q=    0.4100 A=    0.0000 R=    0.0000 C=    0.0000
 XYZ=   10.3218    1.7191    0.5597 Q=   -0.8200 A=    0.0000 R=    0.0000 C=    0.0000
 XYZ=    9.5476    1.2036    0.9271 Q=    0.4100 A=    0.0000 R=    0.0000 C=    0.0000
 XYZ=   10.1367    2.6988    0.6370 Q=    0.4100 A=    0.0000 R=    0.0000 C=    0.0000
 XYZ=    4.6170    5.6525    6.1598 Q=   -0.8200 A=    0.0000 R=    0.0000 C=    0.0000
 XYZ=    5.0490    6.5466    6.0417 Q=    0.4100 A=    0.0000 R=    0.0000 C=    0.0000
 XYZ=    5.3229    4.9468    6.2208 Q=    0.4100 A=    0.0000 R=    0.0000 C=    0.0000
 XYZ=   -7.4405    3.4149    7.2244 Q=   -0.8200 A=    0.0000 R=    0.0000 C=    0.0000
 XYZ=   -7.3914    2.9086    8.0854 Q=    0.4100 A=    0.0000 R=    0.0000 C=    0.0000
 XYZ=   -6.7054    4.0923    7.1938 Q=    0.4100 A=    0.0000 R=    0.0000 C=    0.0000
 XYZ=   -6.2024    3.6675   -7.9416 Q=   -0.8200 A=    0.0000 R=    0.0000 C=    0.0000
 XYZ=   -5.8488    4.4500   -8.4541 Q=    0.4100 A=    0.0000 R=    0.0000 C=    0.0000
 XYZ=   -5.7221    2.8380   -8.2265 Q=    0.4100 A=    0.0000 R=    0.0000 C=    0.0000
 XYZ=    6.0714    0.8476    8.0207 Q=   -0.8200 A=    0.0000 R=    0.0000 C=    0.0000
 XYZ=    5.5718    1.5767    7.5529 Q=    0.4100 A=    0.0000 R=    0.0000 C=    0.0000
 XYZ=    6.9807    1.1768    8.2752 Q=    0.4100 A=    0.0000 R=    0.0000 C=    0.0000
 XYZ=    6.5012    8.1596    0.2086 Q=   -0.8200 A=    0.0000 R=    0.0000 C=    0.0000
 XYZ=    6.6329    9.0319    0.6797 Q=    0.4100 A=    0.0000 R=    0.0000 C=    0.0000
 XYZ=    6.5658    7.4113    0.8688 Q=    0.4100 A=    0.0000 R=    0.0000 C=    0.0000
 XYZ=   -8.5893    6.0808    2.4328 Q=   -0.8200 A=    0.0000 R=    0.0000 C=    0.0000
 XYZ=   -8.8183    5.8778    3.3849 Q=    0.4100 A=    0.0000 R=    0.0000 C=    0.0000
 XYZ=   -9.1619    5.5282    1.8271 Q=    0.4100 A=    0.0000 R=    0.0000 C=    0.0000
 XYZ=   -2.9798    5.6277    9.6135 Q=   -0.8200 A=    0.0000 R=    0.0000 C=    0.0000
 XYZ=   -3.5131    6.4170    9.3088 Q=    0.4100 A=    0.0000 R=    0.0000 C=    0.0000
 XYZ=   -2.5124    5.2186    8.8298 Q=    0.4100 A=    0.0000 R=    0.0000 C=    0.0000
 XYZ=    6.4002   -1.8633   -9.2364 Q=   -0.8200 A=    0.0000 R=    0.0000 C=    0.0000
 XYZ=    6.2249   -1.0274   -8.7161 Q=    0.4100 A=    0.0000 R=    0.0000 C=    0.0000
 XYZ=    6.1624   -2.6588   -8.6791 Q=    0.4100 A=    0.0000 R=    0.0000 C=    0.0000
 XYZ=    1.4128    0.9766  -10.9302 Q=   -0.8200 A=    0.0000 R=    0.0000 C=    0.0000
 XYZ=    0.9755    1.8575  -11.1112 Q=    0.4100 A=    0.0000 R=    0.0000 C=    0.0000
 XYZ=    0.7120    0.2690  -10.8393 Q=    0.4100 A=    0.0000 R=    0.0000 C=    0.0000
 XYZ=   -3.5178  -10.3283    2.1121 Q=   -0.8200 A=    0.0000 R=    0.0000 C=    0.0000
 XYZ=   -2.9305   -9.5991    2.4634 Q=    0.4100 A=    0.0000 R=    0.0000 C=    0.0000
 XYZ=   -3.5503  -10.2783    1.1139 Q=    0.4100 A=    0.0000 R=    0.0000 C=    0.0000
 XYZ=    0.1491   11.7476    2.1624 Q=   -0.8200 A=    0.0000 R=    0.0000 C=    0.0000
 XYZ=    0.0273   10.8766    2.6383 Q=    0.4100 A=    0.0000 R=    0.0000 C=    0.0000
 XYZ=    0.1357   11.5924    1.1746 Q=    0.4100 A=    0.0000 R=    0.0000 C=    0.0000
 XYZ=   -9.1173    5.4671    4.7282 Q=   -0.8200 A=    0.0000 R=    0.0000 C=    0.0000
 XYZ=   -8.5509    4.6439    4.7692 Q=    0.4100 A=    0.0000 R=    0.0000 C=    0.0000
 XYZ=   -8.5779    6.2575    5.0187 Q=    0.4100 A=    0.0000 R=    0.0000 C=    0.0000
 XYZ=   -5.0407   -0.5777   -8.7962 Q=   -0.8200 A=    0.0000 R=    0.0000 C=    0.0000
 XYZ=   -5.3862   -1.4130   -8.3686 Q=    0.4100 A=    0.0000 R=    0.0000 C=    0.0000
 XYZ=   -5.5607   -0.3902   -9.6295 Q=    0.4100 A=    0.0000 R=    0.0000 C=    0.0000
 XYZ=   -4.1667   -4.9038    8.2019 Q=   -0.8200 A=    0.0000 R=    0.0000 C=    0.0000
 XYZ=   -4.8579   -5.6220    8.2813 Q=    0.4100 A=    0.0000 R=    0.0000 C=    0.0000
 XYZ=   -3.9548   -4.5433    9.1103 Q=    0.4100 A=    0.0000 R=    0.0000 C=    0.0000
 XYZ=    6.3392   -3.8960   -7.8287 Q=   -0.8200 A=    0.0000 R=    0.0000 C=    0.0000
 XYZ=    7.1649   -4.2056   -7.3570 Q=    0.4100 A=    0.0000 R=    0.0000 C=    0.0000
 XYZ=    6.0471   -4.5944   -8.4822 Q=    0.4100 A=    0.0000 R=    0.0000 C=    0.0000
 XYZ=    7.0587    7.2862   -2.0157 Q=   -0.8200 A=    0.0000 R=    0.0000 C=    0.0000
 XYZ=    6.3896    7.8459   -2.5047 Q=    0.4100 A=    0.0000 R=    0.0000 C=    0.0000
 XYZ=    7.0325    7.5105   -1.0415 Q=    0.4100 A=    0.0000 R=    0.0000 C=    0.0000
 XYZ=   10.1201    2.9851   -3.3368 Q=   -0.8200 A=    0.0000 R=    0.0000 C=    0.0000
 XYZ=    9.4206    3.2978   -2.6941 Q=    0.4100 A=    0.0000 R=    0.0000 C=    0.0000
 XYZ=   10.9170    2.6580   -2.8289 Q=    0.4100 A=    0.0000 R=    0.0000 C=    0.0000
 XYZ=   10.9979   -0.9102   -2.0906 Q=   -0.8200 A=    0.0000 R=    0.0000 C=    0.0000
 XYZ=   11.7437   -1.5559   -1.9268 Q=    0.4100 A=    0.0000 R=    0.0000 C=    0.0000
 XYZ=   10.2845   -1.0436   -1.4026 Q=    0.4100 A=    0.0000 R=    0.0000 C=    0.0000
 XYZ=   -9.4358   -2.0037    4.3736 Q=   -0.8200 A=    0.0000 R=    0.0000 C=    0.0000
 XYZ=   -9.4357   -1.5166    3.5003 Q=    0.4100 A=    0.0000 R=    0.0000 C=    0.0000
 XYZ=  -10.1101   -2.7415    4.3436 Q=    0.4100 A=    0.0000 R=    0.0000 C=    0.0000
 XYZ=   -2.6897   10.8838   -4.8198 Q=   -0.8200 A=    0.0000 R=    0.0000 C=    0.0000
 XYZ=   -2.8972   11.8350   -4.5913 Q=    0.4100 A=    0.0000 R=    0.0000 C=    0.0000
 XYZ=   -3.4782   10.3089   -4.6012 Q=    0.4100 A=    0.0000 R=    0.0000 C=    0.0000
 XYZ=   -7.7724   -5.5064    5.3681 Q=   -0.8200 A=    0.0000 R=    0.0000 C=    0.0000
 XYZ=   -8.5394   -5.8890    4.8531 Q=    0.4100 A=    0.0000 R=    0.0000 C=    0.0000
 XYZ=   -7.5435   -4.6037    5.0036 Q=    0.4100 A=    0.0000 R=    0.0000 C=    0.0000
 XYZ=  -11.1330    1.3988    2.5416 Q=   -0.8200 A=    0.0000 R=    0.0000 C=    0.0000
 XYZ=  -10.1701    1.6013    2.3630 Q=    0.4100 A=    0.0000 R=    0.0000 C=    0.0000
 XYZ=  -11.4330    0.6539    1.9456 Q=    0.4100 A=    0.0000 R=    0.0000 C=    0.0000
 XYZ=    2.0699   -6.9120   -8.7089 Q=   -0.8200 A=    0.0000 R=    0.0000 C=    0.0000
 XYZ=    2.6140   -6.0847   -8.5696 Q=    0.4100 A=    0.0000 R=    0.0000 C=    0.0000
 XYZ=    2.6776   -7.6810   -8.9075 Q=    0.4100 A=    0.0000 R=    0.0000 C=    0.0000
 XYZ=   -7.7579    8.3909    1.7716 Q=   -0.8200 A=    0.0000 R=    0.0000 C=    0.0000
 XYZ=   -8.1701    7.4941    1.9325 Q=    0.4100 A=    0.0000 R=    0.0000 C=    0.0000
 XYZ=   -7.7547    8.9140    2.6239 Q=    0.4100 A=    0.0000 R=    0.0000 C=    0.0000
 XYZ=    3.5664    6.0227    8.3050 Q=   -0.8200 A=    0.0000 R=    0.0000 C=    0.0000
 XYZ=    4.3819    6.3839    8.7575 Q=    0.4100 A=    0.0000 R=    0.0000 C=    0.0000
 XYZ=    3.7414    5.9332    7.3245 Q=    0.4100 A=    0.0000 R=    0.0000 C=    0.0000
 XYZ=   -6.2048   -7.8827   -1.0164 Q=   -0.8200 A=    0.0000 R=    0.0000 C=    0.0000
 XYZ=   -6.8962   -7.8070   -0.2978 Q=    0.4100 A=    0.0000 R=    0.0000 C=    0.0000
 XYZ=   -6.4006   -8.6822   -1.5844 Q=    0.4100 A=    0.0000 R=    0.0000 C=    0.0000
 XYZ=   -3.6036    2.8514  -11.0561 Q=   -0.8200 A=    0.0000 R=    0.0000 C=    0.0000
 XYZ=   -3.1873    2.7620  -10.1513 Q=    0.4100 A=    0.0000 R=    0.0000 C=    0.0000
 XYZ=   -3.7768    1.9421  -11.4346 Q=    0.4100 A=    0.0000 R=    0.0000 C=    0.0000
 XYZ=    9.3974    4.0849    0.3849 Q=   -0.8200 A=    0.0000 R=    0.0000 C=    0.0000
 XYZ=    8.8459    4.4566    1.1317 Q=    0.4100 A=    0.0000 R=    0.0000 C=    0.0000
 XYZ=   10.1937    4.6710    0.2349 Q=    0.4100 A=    0.0000 R=    0.0000 C=    0.0000
 XYZ=  -11.1489   -0.2522    0.6474 Q=   -0.8200 A=    0.0000 R=    0.0000 C=    0.0000
 XYZ=  -10.8357   -0.0334   -0.2767 Q=    0.4100 A=    0.0000 R=    0.0000 C=    0.0000
 XYZ=  -10.3626   -0.4867    1.2190 Q=    0.4100 A=    0.0000 R=    0.0000 C=    0.0000
 XYZ=   -4.0067   11.2315    0.9321 Q=   -0.8200 A=    0.0000 R=    0.0000 C=    0.0000
 XYZ=   -4.7191   11.4294    1.6055 Q=    0.4100 A=    0.0000 R=    0.0000 C=    0.0000
 XYZ=   -4.4050   11.2346    0.0148 Q=    0.4100 A=    0.0000 R=    0.0000 C=    0.0000
 XYZ=   -1.8742   -6.2770   -8.6919 Q=   -0.8200 A=    0.0000 R=    0.0000 C=    0.0000
 XYZ=   -1.9296   -5.2895   -8.8401 Q=    0.4100 A=    0.0000 R=    0.0000 C=    0.0000
 XYZ=   -2.6117   -6.5640   -8.0805 Q=    0.4100 A=    0.0000 R=    0.0000 C=    0.0000
 XYZ=   -8.8711    1.0961    7.0316 Q=   -0.8200 A=    0.0000 R=    0.0000 C=    0.0000
 XYZ=   -8.6597    0.3082    6.4533 Q=    0.4100 A=    0.0000 R=    0.0000 C=    0.0000
 XYZ=   -8.5951    1.9361    6.5644 Q=    0.4100 A=    0.0000 R=    0.0000 C=    0.0000
 XYZ=   -9.1602   -5.8896    1.0449 Q=   -0.8200 A=    0.0000 R=    0.0000 C=    0.0000
 XYZ=   -9.9303   -6.0902    0.4392 Q=    0.4100 A=    0.0000 R=    0.0000 C=    0.0000
 XYZ=   -8.6251   -5.1350    0.6650 Q=    0.4100 A=    0.0000 R=    0.0000 C=    0.0000
 XYZ=   -6.9176    9.7266    0.1957 Q=   -0.8200 A=    0.0000 R=    0.0000 C=    0.0000
 XYZ=   -7.6310   10.1008   -0.3969 Q=    0.4100 A=    0.0000 R=    0.0000 C=    0.0000
 XYZ=   -7.3395    9.1953    0.9304 Q=    0.4100 A=    0.0000 R=    0.0000 C=    0.0000
 XYZ=   -0.6549   -4.1865   -9.9269 Q=   -0.8200 A=    0.0000 R=    0.0000 C=    0.0000
 XYZ=   -0.0632   -3.4884  -10.3301 Q=    0.4100 A=    0.0000 R=    0.0000 C=    0.0000
 XYZ=   -0.1855   -5.0694   -9.9400 Q=    0.4100 A=    0.0000 R=    0.0000 C=    0.0000
 XYZ=   -4.1371    7.4491    8.7896 Q=   -0.8200 A=    0.0000 R=    0.0000 C=    0.0000
 XYZ=   -4.0316    7.2171    7.8226 Q=    0.4100 A=    0.0000 R=    0.0000 C=    0.0000
 XYZ=   -5.0136    7.9101    8.9281 Q=    0.4100 A=    0.0000 R=    0.0000 C=    0.0000
 XYZ=    6.4970    3.9704    6.2429 Q=   -0.8200 A=    0.0000 R=    0.0000 C=    0.0000
 XYZ=    7.1398    3.5691    5.5904 Q=    0.4100 A=    0.0000 R=    0.0000 C=    0.0000
 XYZ=    6.9314    4.0359    7.1413 Q=    0.4100 A=    0.0000 R=    0.0000 C=    0.0000
 XYZ=    0.6901    3.2797  -11.4299 Q=   -0.8200 A=    0.0000 R=    0.0000 C=    0.0000
 XYZ=    0.0979    3.9005  -10.9161 Q=    0.4100 A=    0.0000 R=    0.0000 C=    0.0000
 XYZ=    1.6309    3.6175  -11.4023 Q=    0.4100 A=    0.0000 R=    0.0000 C=    0.0000
 XYZ=   -4.9904   -8.1920    6.1720 Q=   -0.8200 A=    0.0000 R=    0.0000 C=    0.0000
 XYZ=   -5.5398   -7.7296    5.4761 Q=    0.4100 A=    0.0000 R=    0.0000 C=    0.0000
 XYZ=   -5.0835   -7.7112    7.0439 Q=    0.4100 A=    0.0000 R=    0.0000 C=    0.0000
 XYZ=   -5.3525   11.1141   -0.9823 Q=   -0.8200 A=    0.0000 R=    0.0000 C=    0.0000
 XYZ=   -5.7235   11.9387   -1.4095 Q=    0.4100 A=    0.0000 R=    0.0000 C=    0.0000
 XYZ=   -6.0790   10.6418   -0.4831 Q=    0.4100 A=    0.0000 R=    0.0000 C=    0.0000
 XYZ=    9.5696   -7.1506   -1.6123 Q=   -0.8200 A=    0.0000 R=    0.0000 C=    0.0000
 XYZ=    8.7675   -7.5166   -1.1403 Q=    0.4100 A=    0.0000 R=    0.0000 C=    0.0000
 XYZ=   10.3619   -7.7301   -1.4214 Q=    0.4100 A=    0.0000 R=    0.0000 C=    0.0000
 XYZ=    9.2035   -7.7865    2.4286 Q=   -0.8200 A=    0.0000 R=    0.0000 C=    0.0000
 XYZ=    8.3430   -7.4521    2.0443 Q=    0.4100 A=    0.0000 R=    0.0000 C=    0.0000
 XYZ=    9.0100   -8.4208    3.1772 Q=    0.4100 A=    0.0000 R=    0.0000 C=    0.0000
 XYZ=   -3.3100  -10.2252   -0.2427 Q=   -0.8200 A=    0.0000 R=    0.0000 C=    0.0000
 XYZ=   -2.4237  -10.6794   -0.1522 Q=    0.4100 A=    0.0000 R=    0.0000 C=    0.0000
 XYZ=   -3.8645  -10.7084   -0.9204 Q=    0.4100 A=    0.0000 R=    0.0000 C=    0.0000
 XYZ=   -5.7838   10.6851   -5.4420 Q=   -0.8200 A=    0.0000 R=    0.0000 C=    0.0000
 XYZ=   -5.3735    9.9884   -4.8535 Q=    0.4100 A=    0.0000 R=    0.0000 C=    0.0000
 XYZ=   -5.1170   10.9771   -6.1276 Q=    0.4100 A=    0.0000 R=    0.0000 C=    0.0000
 XYZ=   -3.6024    6.0102   -9.3383 Q=   -0.8200 A=    0.0000 R=    0.0000 C=    0.0000
 XYZ=   -3.2112    6.8081   -9.7970 Q=    0.4100 A=    0.0000 R=    0.0000 C=    0.0000
 XYZ=   -4.5912    6.1292   -9.2480 Q=    0.4100 A=    0.0000 R=    0.0000 C=    0.0000
 XYZ=   -4.9591   10.1950    3.6796 Q=   -0.8200 A=    0.0000 R=    0.0000 C=    0.0000
 XYZ=   -4.5551   10.5401    4.5268 Q=    0.4100 A=    0.0000 R=    0.0000 C=    0.0000
 XYZ=   -5.3244   10.9598    3.1488 Q=    0.4100 A=    0.0000 R=    0.0000 C=    0.0000
 XYZ=    0.8908   -2.8675  -11.1953 Q=   -0.8200 A=    0.0000 R=    0.0000 C=    0.0000
 XYZ=    1.8146   -2.8699  -10.8124 Q=    0.4100 A=    0.0000 R=    0.0000 C=    0.0000
 XYZ=    0.9329   -2.6304  -12.1659 Q=    0.4100 A=    0.0000 R=    0.0000 C=    0.0000
 XYZ=    9.7549    1.8710   -5.2760 Q=   -0.8200 A=    0.0000 R=    0.0000 C=    0.0000
 XYZ=    9.9373    2.4162   -4.4578 Q=    0.4100 A=    0.0000 R=    0.0000 C=    0.0000
 XYZ=    9.9764    0.9128   -5.0942 Q=    0.4100 A=    0.0000 R=    0.0000 C=    0.0000
 XYZ=   -7.1277   -8.4607    3.0205 Q=   -0.8200 A=    0.0000 R=    0.0000 C=    0.0000
 XYZ=   -6.8024   -7.7091    3.5944 Q=    0.4100 A=    0.0000 R=    0.0000 C=    0.0000
 XYZ=   -6.4434   -9.1898    3.0068 Q=    0.4100 A=    0.0000 R=    0.0000 C=    0.0000
 XYZ=    9.2313   -3.7832    5.8409 Q=   -0.8200 A=    0.0000 R=    0.0000 C=    0.0000
 XYZ=    8.2834   -3.9736    5.5853 Q=    0.4100 A=    0.0000 R=    0.0000 C=    0.0000
 XYZ=    9.3710   -4.0192    6.8026 Q=    0.4100 A=    0.0000 R=    0.0000 C=    0.0000
 XYZ=    4.1335    3.4984    8.8302 Q=   -0.8200 A=    0.0000 R=    0.0000 C=    0.0000
 XYZ=    4.5522    3.4223    9.7352 Q=    0.4100 A=    0.0000 R=    0.0000 C=    0.0000
 XYZ=    3.9580    4.4610    8.6240 Q=    0.4100 A=    0.0000 R=    0.0000 C=    0.0000
 XYZ=    2.6536   -0.6427  -11.8692 Q=   -0.8200 A=    0.0000 R=    0.0000 C=    0.0000
 XYZ=    2.2760    0.1883  -11.4607 Q=    0.4100 A=    0.0000 R=    0.0000 C=    0.0000
 XYZ=    2.9037   -1.2859  -11.1455 Q=    0.4100 A=    0.0000 R=    0.0000 C=    0.0000
 XYZ=   -0.3712   -1.4906   11.4316 Q=   -0.8200 A=    0.0000 R=    0.0000 C=    0.0000
 XYZ=   -0.7505   -2.1324   10.7651 Q=    0.4100 A=    0.0000 R=    0.0000 C=    0.0000
 XYZ=   -1.1172   -1.0241   11.9070 Q=    0.4100 A=    0.0000 R=    0.0000 C=    0.0000
 XYZ=   -0.6324   10.6294    6.4047 Q=   -0.8200 A=    0.0000 R=    0.0000 C=    0.0000
 XYZ=   -0.8688    9.7906    5.9142 Q=    0.4100 A=    0.0000 R=    0.0000 C=    0.0000
 XYZ=    0.3296   10.5970    6.6758 Q=    0.4100 A=    0.0000 R=    0.0000 C=    0.0000
 XYZ=   -0.1707   -7.8301   -8.9650 Q=   -0.8200 A=    0.0000 R=    0.0000 C=    0.0000
 XYZ=   -0.9602   -7.2469   -8.7732 Q=    0.4100 A=    0.0000 R=    0.0000 C=    0.0000
 XYZ=    0.6424   -7.4443   -8.5290 Q=    0.4100 A=    0.0000 R=    0.0000 C=    0.0000
 XYZ=    7.3339    7.4457    4.1435 Q=   -0.8200 A=    0.0000 R=    0.0000 C=    0.0000
 XYZ=    7.9813    6.7542    4.4640 Q=    0.4100 A=    0.0000 R=    0.0000 C=    0.0000
 XYZ=    6.9034    7.1323    3.2970 Q=    0.4100 A=    0.0000 R=    0.0000 C=    0.0000
 XYZ=  -10.0469    2.5561   -4.7561 Q=   -0.8200 A=    0.0000 R=    0.0000 C=    0.0000
 XYZ=  -10.2168    2.5125   -3.7715 Q=    0.4100 A=    0.0000 R=    0.0000 C=    0.0000
 XYZ=  -10.8312    2.1765   -5.2467 Q=    0.4100 A=    0.0000 R=    0.0000 C=    0.0000
 XYZ=   -1.2955   13.1161   -0.8448 Q=   -0.8200 A=    0.0000 R=    0.0000 C=    0.0000
 XYZ=   -0.7217   12.2987   -0.7944 Q=    0.4100 A=    0.0000 R=    0.0000 C=    0.0000
 XYZ=   -1.7952   13.2261    0.0143 Q=    0.4100 A=    0.0000 R=    0.0000 C=    0.0000
 XYZ=   -3.5997   -7.1065   -7.4940 Q=   -0.8200 A=    0.0000 R=    0.0000 C=    0.0000
 XYZ=   -3.9727   -7.5233   -8.3230 Q=    0.4100 A=    0.0000 R=    0.0000 C=    0.0000
 XYZ=   -4.3309   -6.9897   -6.8218 Q=    0.4100 A=    0.0000 R=    0.0000 C=    0.0000
 XYZ=  -10.7239    2.2543   -2.6632 Q=   -0.8200 A=    0.0000 R=    0.0000 C=    0.0000
 XYZ=  -11.7007    2.1172   -2.8281 Q=    0.4100 A=    0.0000 R=    0.0000 C=    0.0000
 XYZ=  -10.5751    3.1671   -2.2828 Q=    0.4100 A=    0.0000 R=    0.0000 C=    0.0000
 XYZ=   -7.5983    7.3040    5.1294 Q=   -0.8200 A=    0.0000 R=    0.0000 C=    0.0000
 XYZ=   -7.3157    8.1394    4.6579 Q=    0.4100 A=    0.0000 R=    0.0000 C=    0.0000
 XYZ=   -7.6394    7.4746    6.1139 Q=    0.4100 A=    0.0000 R=    0.0000 C=    0.0000
 XYZ=   -8.5180    4.2251   -7.8505 Q=   -0.8200 A=    0.0000 R=    0.0000 C=    0.0000
 XYZ=   -8.6300    4.9849   -8.4911 Q=    0.4100 A=    0.0000 R=    0.0000 C=    0.0000
 XYZ=   -7.5664    3.9178   -7.8610 Q=    0.4100 A=    0.0000 R=    0.0000 C=    0.0000
 XYZ=    0.5121    5.3294   10.0946 Q=   -0.8200 A=    0.0000 R=    0.0000 C=    0.0000
 XYZ=   -0.3449    5.3361   10.6100 Q=    0.4100 A=    0.0000 R=    0.0000 C=    0.0000
 XYZ=    0.8668    4.3955   10.0497 Q=    0.4100 A=    0.0000 R=    0.0000 C=    0.0000
 XYZ=   -1.4897    2.9826   10.6453 Q=   -0.8200 A=    0.0000 R=    0.0000 C=    0.0000
 XYZ=   -0.6699    2.5711   11.0437 Q=    0.4100 A=    0.0000 R=    0.0000 C=    0.0000
 XYZ=   -1.5341    3.9490   10.8984 Q=    0.4100 A=    0.0000 R=    0.0000 C=    0.0000
 XYZ=   -5.3238    4.5946    9.6401 Q=   -0.8200 A=    0.0000 R=    0.0000 C=    0.0000
 XYZ=   -4.3594    4.8535    9.5871 Q=    0.4100 A=    0.0000 R=    0.0000 C=    0.0000
 XYZ=   -5.8023    4.9229    8.8256 Q=    0.4100 A=    0.0000 R=    0.0000 C=    0.0000
 XYZ=   -3.7571    0.3823  -11.6286 Q=   -0.8200 A=    0.0000 R=    0.0000 C=    0.0000
 XYZ=   -3.2356   -0.1559  -10.9664 Q=    0.4100 A=    0.0000 R=    0.0000 C=    0.0000
 XYZ=   -4.7351    0.2716  -11.4517 Q=    0.4100 A=    0.0000 R=    0.0000 C=    0.0000
 XYZ=   -6.1787   -3.0430   -8.0892 Q=   -0.8200 A=    0.0000 R=    0.0000 C=    0.0000
 XYZ=   -6.0550   -3.5727   -8.9284 Q=    0.4100 A=    0.0000 R=    0.0000 C=    0.0000
 XYZ=   -7.0607   -2.5727   -8.1190 Q=    0.4100 A=    0.0000 R=    0.0000 C=    0.0000
 XYZ=   -6.9024   -4.8653   -6.4106 Q=   -0.8200 A=    0.0000 R=    0.0000 C=    0.0000
 XYZ=   -6.5771   -4.0419   -6.8757 Q=    0.4100 A=    0.0000 R=    0.0000 C=    0.0000
 XYZ=   -7.7949   -5.1255   -6.7790 Q=    0.4100 A=    0.0000 R=    0.0000 C=    0.0000
 XYZ=    8.4782   -4.7345   -6.7033 Q=   -0.8200 A=    0.0000 R=    0.0000 C=    0.0000
 XYZ=    8.9303   -3.8461   -6.7832 Q=    0.4100 A=    0.0000 R=    0.0000 C=    0.0000
 XYZ=    9.0260   -5.4302   -7.1680 Q=    0.4100 A=    0.0000 R=    0.0000 C=    0.0000
 XYZ=   11.3814   -1.8462    2.7671 Q=   -0.8200 A=    0.0000 R=    0.0000 C=    0.0000
 XYZ=   10.7382   -2.3043    2.1534 Q=    0.4100 A=    0.0000 R=    0.0000 C=    0.0000
 XYZ=   11.0511   -1.9161    3.7085 Q=    0.4100 A=    0.0000 R=    0.0000 C=    0.0000
 XYZ=   -2.7778   -9.3335   -6.6706 Q=   -0.8200 A=    0.0000 R=    0.0000 C=    0.0000
 XYZ=   -2.9227   -8.3545   -6.8136 Q=    0.4100 A=    0.0000 R=    0.0000 C=    0.0000
 XYZ=   -3.0603   -9.8352   -7.4882 Q=    0.4100 A=    0.0000 R=    0.0000 C=    0.0000
 XYZ=    3.6116   -0.5584   11.3942 Q=   -0.8200 A=    0.0000 R=    0.0000 C=    0.0000
 XYZ=    3.5554   -0.5454   10.3958 Q=    0.4100 A=    0.0000 R=    0.0000 C=    0.0000
 XYZ=    4.1992    0.1888   11.7047 Q=    0.4100 A=    0.0000 R=    0.0000 C=    0.0000
 XYZ=   -7.1340    9.2348    3.9176 Q=   -0.8200 A=    0.0000 R=    0.0000 C=    0.0000
 XYZ=   -7.7156    9.7985    4.5040 Q=    0.4100 A=    0.0000 R=    0.0000 C=    0.0000
 XYZ=   -6.2480    9.6827    3.7974 Q=    0.4100 A=    0.0000 R=    0.0000 C=    0.0000
 XYZ=   -1.3198    6.0798  -11.2494 Q=   -0.8200 A=    0.0000 R=    0.0000 C=    0.0000
 XYZ=   -1.7646    5.3982  -11.8304 Q=    0.4100 A=    0.0000 R=    0.0000 C=    0.0000
 XYZ=   -0.8748    5.6222  -10.4795 Q=    0.4100 A=    0.0000 R=    0.0000 C=    0.0000
 XYZ=   -7.8416   -7.8647    0.7696 Q=   -0.8200 A=    0.0000 R=    0.0000 C=    0.0000
 XYZ=   -8.3355   -7.0104    0.9319 Q=    0.4100 A=    0.0000 R=    0.0000 C=    0.0000
 XYZ=   -7.3380   -8.1204    1.5948 Q=    0.4100 A=    0.0000 R=    0.0000 C=    0.0000
 XYZ=   -2.4262   -3.2518  -11.1338 Q=   -0.8200 A=    0.0000 R=    0.0000 C=    0.0000
 XYZ=   -1.7098   -3.7024  -10.6011 Q=    0.4100 A=    0.0000 R=    0.0000 C=    0.0000
 XYZ=   -2.2546   -3.3921  -12.1089 Q=    0.4100 A=    0.0000 R=    0.0000 C=    0.0000
 XYZ=   11.3484   -4.5777   -0.3667 Q=   -0.8200 A=    0.0000 R=    0.0000 C=    0.0000
 XYZ=   10.8196   -4.4883   -1.2107 Q=    0.4100 A=    0.0000 R=    0.0000 C=    0.0000
 XYZ=   11.5308   -5.5446   -0.1884 Q=    0.4100 A=    0.0000 R=    0.0000 C=    0.0000
 XYZ=    0.8988   -5.8848  -10.4720 Q=   -0.8200 A=    0.0000 R=    0.0000 C=    0.0000
 XYZ=    1.4048   -6.2181   -9.6764 Q=    0.4100 A=    0.0000 R=    0.0000 C=    0.0000
 XYZ=    1.4497   -5.2054  -10.9567 Q=    0.4100 A=    0.0000 R=    0.0000 C=    0.0000
 XYZ=   -1.1507   -7.9389    9.5030 Q=   -0.8200 A=    0.0000 R=    0.0000 C=    0.0000
 XYZ=   -1.6276   -7.4286    8.7874 Q=    0.4100 A=    0.0000 R=    0.0000 C=    0.0000
 XYZ=   -0.2423   -7.5451    9.6442 Q=    0.4100 A=    0.0000 R=    0.0000 C=    0.0000
 XYZ=   -5.5644   -6.7720   -6.3021 Q=   -0.8200 A=    0.0000 R=    0.0000 C=    0.0000
 XYZ=   -6.2186   -6.0373   -6.1222 Q=    0.4100 A=    0.0000 R=    0.0000 C=    0.0000
 XYZ=   -5.7740   -7.5554   -5.7171 Q=    0.4100 A=    0.0000 R=    0.0000 C=    0.0000
 XYZ=    0.4977    2.3589   11.6308 Q=   -0.8200 A=    0.0000 R=    0.0000 C=    0.0000
 XYZ=    0.8143    2.6482   10.7274 Q=    0.4100 A=    0.0000 R=    0.0000 C=    0.0000
 XYZ=    0.9811    1.5267   11.9026 Q=    0.4100 A=    0.0000 R=    0.0000 C=    0.0000
 XYZ=   -1.8885  -10.9483   -5.3031 Q=   -0.8200 A=    0.0000 R=    0.0000 C=    0.0000
 XYZ=   -1.0914  -10.4996   -4.8990 Q=    0.4100 A=    0.0000 R=    0.0000 C=    0.0000
 XYZ=   -2.3943  -10.2903   -5.8610 Q=    0.4100 A=    0.0000 R=    0.0000 C=    0.0000
 XYZ=    6.8247    5.5754   -8.3170 Q=   -0.8200 A=    0.0000 R=    0.0000 C=    0.0000
 XYZ=    7.8072    5.6607   -8.4823 Q=    0.4100 A=    0.0000 R=    0.0000 C=    0.0000
 XYZ=    6.3245    5.8187   -9.1481 Q=    0.4100 A=    0.0000 R=    0.0000 C=    0.0000
 XYZ=   11.3704    1.5720   -1.7213 Q=   -0.8200 A=    0.0000 R=    0.0000 C=    0.0000
 XYZ=   11.1361    0.6718   -2.0884 Q=    0.4100 A=    0.0000 R=    0.0000 C=    0.0000
 XYZ=   10.8640    1.7281   -0.8732 Q=    0.4100 A=    0.0000 R=    0.0000 C=    0.0000
 XYZ=   -1.5710    0.3906  -12.5595 Q=   -0.8200 A=    0.0000 R=    0.0000 C=    0.0000
 XYZ=   -1.0128   -0.0557  -11.8600 Q=    0.4100 A=    0.0000 R=    0.0000 C=    0.0000
 XYZ=   -2.4960    0.5329  -12.2070 Q=    0.4100 A=    0.0000 R=    0.0000 C=    0.0000
 XYZ=    0.7955   -5.7478   10.1751 Q=   -0.8200 A=    0.0000 R=    0.0000 C=    0.0000
 XYZ=    1.7898   -5.7167   10.2776 Q=    0.4100 A=    0.0000 R=    0.0000 C=    0.0000
 XYZ=    0.3664   -5.2699   10.9416 Q=    0.4100 A=    0.0000 R=    0.0000 C=    0.0000
 XYZ=    9.4228   -7.2811   -3.8950 Q=   -0.8200 A=    0.0000 R=    0.0000 C=    0.0000
 XYZ=    9.3805   -7.2868   -2.8959 Q=    0.4100 A=    0.0000 R=    0.0000 C=    0.0000
 XYZ=   10.1441   -7.9023   -4.2015 Q=    0.4100 A=    0.0000 R=    0.0000 C=    0.0000
 XYZ=   -9.8799    4.8250   -5.9190 Q=   -0.8200 A=    0.0000 R=    0.0000 C=    0.0000
 XYZ=   -9.3151    4.5599   -6.7005 Q=    0.4100 A=    0.0000 R=    0.0000 C=    0.0000
 XYZ=   -9.9723    4.0484   -5.2958 Q=    0.4100 A=    0.0000 R=    0.0000 C=    0.0000
 XYZ=    8.7080   -2.0346   -9.0016 Q=   -0.8200 A=    0.0000 R=    0.0000 C=    0.0000
 XYZ=    7.7164   -1.9078   -8.9763 Q=    0.4100 A=    0.0000 R=    0.0000 C=    0.0000
 XYZ=    9.0985   -1.4652   -9.7250 Q=    0.4100 A=    0.0000 R=    0.0000 C=    0.0000
 XYZ=    7.0532    9.0044   -6.1894 Q=   -0.8200 A=    0.0000 R=    0.0000 C=    0.0000
 XYZ=    7.9272    8.8309   -5.7355 Q=    0.4100 A=    0.0000 R=    0.0000 C=    0.0000
 XYZ=    6.4947    8.1752   -6.1650 Q=    0.4100 A=    0.0000 R=    0.0000 C=    0.0000
 XYZ=   -7.5285   -6.2082   -4.4675 Q=   -0.8200 A=    0.0000 R=    0.0000 C=    0.0000
 XYZ=   -7.3391   -5.5966   -5.2357 Q=    0.4100 A=    0.0000 R=    0.0000 C=    0.0000
 XYZ=   -8.4393   -6.6067   -4.5755 Q=    0.4100 A=    0.0000 R=    0.0000 C=    0.0000
 XYZ=    2.1781   12.7100    2.5444 Q=   -0.8200 A=    0.0000 R=    0.0000 C=    0.0000
 XYZ=    1.3457   12.1714    2.4134 Q=    0.4100 A=    0.0000 R=    0.0000 C=    0.0000
 XYZ=    1.9665   13.6816    2.4380 Q=    0.4100 A=    0.0000 R=    0.0000 C=    0.0000
 XYZ=   -3.4526   -4.0913   10.4012 Q=   -0.8200 A=    0.0000 R=    0.0000 C=    0.0000
 XYZ=   -3.3132   -4.9983   10.7988 Q=    0.4100 A=    0.0000 R=    0.0000 C=    0.0000
 XYZ=   -3.7599   -3.4592   11.1125 Q=    0.4100 A=    0.0000 R=    0.0000 C=    0.0000
 XYZ=   -2.6868   13.4693    0.9839 Q=   -0.8200 A=    0.0000 R=    0.0000 C=    0.0000
 XYZ=   -3.0750   12.5478    0.9659 Q=    0.4100 A=    0.0000 R=    0.0000 C=    0.0000
 XYZ=   -3.3362   14.1125    0.5781 Q=    0.4100 A=    0.0000 R=    0.0000 C=    0.0000
 XYZ=    9.4459    8.0573   -2.5219 Q=   -0.8200 A=    0.0000 R=    0.0000 C=    0.0000
 XYZ=    9.5503    8.5076   -3.4086 Q=    0.4100 A=    0.0000 R=    0.0000 C=    0.0000
 XYZ=    8.5198    7.6883   -2.4425 Q=    0.4100 A=    0.0000 R=    0.0000 C=    0.0000
 XYZ=    9.5345   -2.6730   -6.9233 Q=   -0.8200 A=    0.0000 R=    0.0000 C=    0.0000
 XYZ=   10.4754   -2.4106   -6.7090 Q=    0.4100 A=    0.0000 R=    0.0000 C=    0.0000
 XYZ=    9.2541   -2.2384   -7.7792 Q=    0.4100 A=    0.0000 R=    0.0000 C=    0.0000
 XYZ=  -11.5955    3.6398    2.2221 Q=   -0.8200 A=    0.0000 R=    0.0000 C=    0.0000
 XYZ=  -12.4403    3.7538    1.6992 Q=    0.4100 A=    0.0000 R=    0.0000 C=    0.0000
 XYZ=  -11.4419    2.6677    2.3994 Q=    0.4100 A=    0.0000 R=    0.0000 C=    0.0000
 XYZ=   -5.6340  -10.3041    3.2260 Q=   -0.8200 A=    0.0000 R=    0.0000 C=    0.0000
 XYZ=   -6.2295  -11.0690    2.9804 Q=    0.4100 A=    0.0000 R=    0.0000 C=    0.0000
 XYZ=   -4.7570  -10.4001    2.7551 Q=    0.4100 A=    0.0000 R=    0.0000 C=    0.0000
 XYZ=    2.2210   12.5294    0.1001 Q=   -0.8200 A=    0.0000 R=    0.0000 C=    0.0000
 XYZ=    2.4239   12.7379    1.0569 Q=    0.4100 A=    0.0000 R=    0.0000 C=    0.0000
 XYZ=    3.0742   12.4860   -0.4197 Q=    0.4100 A=    0.0000 R=    0.0000 C=    0.0000
 XYZ=   -9.5080   -5.8920    3.5022 Q=   -0.8200 A=    0.0000 R=    0.0000 C=    0.0000
 XYZ=   -9.2877   -6.0267    2.5361 Q=    0.4100 A=    0.0000 R=    0.0000 C=    0.0000
 XYZ=  -10.1654   -6.5869    3.7941 Q=    0.4100 A=    0.0000 R=    0.0000 C=    0.0000
[...]
    39  O    0.000006   0.000000   0.000000   0.000000   0.000000   0.000000
    40  H    0.000000   0.000000   0.000000   0.000000   0.000000   0.000000
    41  H    0.000000   0.000000   0.000000   0.000000   0.000000   0.000000
    42  O    0.000007  -0.000016   0.000000   0.000000   0.000000  -0.075270
    43  H   -0.000018  -0.000054   0.000000   0.000000   0.000000   0.018530
    44  H    0.000000   0.000000   0.000000   0.000000   0.000000   0.000954
    45  O    0.000000   0.000000   0.000000   0.000000   0.000000   0.000000
    46  H    0.000000   0.000000   0.000000   0.000000   0.000000   0.000000
    47  H    0.000000   0.000000   0.000000   0.000000   0.000000   0.000000
    48  O   -0.044213   0.001106   0.000000   0.000000   0.000000  -0.001265
    49  H    0.001523   0.000073   0.000000   0.000000   0.000000   0.000020
    50  H    0.003236  -0.000152   0.000000   0.000000   0.000000  -0.000064
              31         32         33         34         35         36
     1  C   -0.000173  -0.000008   0.001466   0.000008   0.000028   0.000012
     2  H    0.000000   0.000000   0.000002   0.000000   0.000000   0.000000
     3  H    0.000000   0.000000   0.000000   0.000000   0.000000   0.000000
     4  C   -0.000658   0.000004   0.000320  -0.000153  -0.000350  -0.000486
     5  H    0.000000   0.000000  -0.000002   0.000000   0.000000   0.000002
     6  C    0.000159   0.000105  -0.008282  -0.000501  -0.001098  -0.011304
     7  H   -0.000013   0.000000  -0.001170   0.000002  -0.000055  -0.002305
     8  O    0.001290   0.000060   0.002153   0.000032   0.001891   0.000257
     9  O    0.040368  -0.000170  -0.008631   0.000246   0.002382  -0.000918
    10  H    0.000745   0.000074   0.001155   0.000002   0.000052  -0.000052
    11  H   -0.002147  -0.000106   0.000182   0.000000  -0.000108   0.000047
    12  O    0.000041  -0.000001  -0.089710   0.002363   0.005112  -0.024556
    13  H    0.000021   0.000000   0.003734   0.000135  -0.000429  -0.002227
    14  H   -0.000003   0.000000   0.057871  -0.000600  -0.000951   0.001855
    15  O    0.000000   0.000000   0.000018  -0.000001  -0.000001   0.000000
    16  H    0.000000   0.000000   0.000000   0.000000   0.000000   0.000000
    17  H    0.000000   0.000000  -0.000013   0.000000   0.000000   0.000000
    18  O    0.000000   0.000000   0.000000   0.000000   0.000000   0.000000
    19  H    0.000000   0.000000   0.000000   0.000000   0.000000   0.000000
    20  H    0.000000   0.000000   0.000000   0.000000   0.000000   0.000000
    21  O    0.000000   0.000000   0.000000   0.000000   0.000000   0.000000
    22  H    0.000000   0.000000   0.000000   0.000000   0.000000   0.000000
    23  H    0.000000   0.000000   0.000000   0.000000   0.000000   0.000000
    24  O   -0.001578  -0.000137  -0.127777   0.003610   0.040677   0.000039
    25  H    0.000037  -0.000008  -0.002135  -0.000068  -0.001352   0.000001
    26  H   -0.000082  -0.000053   0.008736  -0.000087   0.003984   0.000014
    27  O    0.000000   0.000000   0.000000   0.000000   0.000000   0.000000
    28  H    0.000000   0.000000   0.000000   0.000000   0.000000   0.000000
    29  H    0.000000   0.000000   0.000000   0.000000   0.000000   0.000000
    30  O    0.140305   0.206758   0.000220  -0.000002   0.000069  -0.000006
    31  H    0.181701  -0.003786   0.000078   0.000000  -0.000002   0.000000
    32  H   -0.003786   0.224791  -0.000007   0.000000   0.000001   0.000000
    33  O    0.000078  -0.000007   9.111981   0.209224   0.099983   0.000097
    34  H    0.000000   0.000000   0.209224   0.187356   0.000343  -0.000026
    35  H   -0.000002   0.000001   0.099983   0.000343   0.197277  -0.000032
    36  O    0.000000   0.000000   0.000097  -0.000026  -0.000032   8.924728
    37  H    0.000000   0.000000  -0.000232   0.000000   0.000001   0.225192
    38  H    0.000000   0.000000   0.000697  -0.000017  -0.000012   0.131275
    39  O    0.000000   0.000000   0.000005   0.000000   0.000000   0.000000
    40  H    0.000000   0.000000   0.000000   0.000000   0.000000   0.000000
    41  H    0.000000   0.000000   0.000000   0.000000   0.000000   0.000000
    42  O    0.002145   0.001623  -0.000005   0.000000   0.000000   0.000000
    43  H    0.001090   0.000482  -0.000001   0.000000   0.000000   0.000000
    44  H    0.000037   0.000006   0.000000   0.000000   0.000000   0.000000
    45  O    0.000000   0.000000   0.000000   0.000000   0.000000   0.000000
    46  H    0.000000   0.000000   0.000000   0.000000   0.000000   0.000000
    47  H    0.000000   0.000000   0.000000   0.000000   0.000000   0.000000
    48  O    0.000327  -0.000012  -0.004959   0.000139  -0.001262   0.000001
    49  H    0.000001   0.000000   0.000308  -0.000012  -0.000021   0.000000
    50  H    0.000018   0.000001   0.000060  -0.000001  -0.000010   0.000000
              37         38         39         40         41         42
     1  C   -0.000011  -0.000076  -0.005020  -0.000267  -0.000514   0.000046
     2  H    0.000000   0.000000  -0.000379   0.000015  -0.000118  -0.000001
     3  H    0.000000   0.000000   0.000035   0.000000   0.000002   0.000000
     4  C    0.000377   0.002927   0.000847   0.000221   0.000925   0.000147
     5  H    0.000000  -0.000002   0.000000   0.000000   0.000000   0.000000
     6  C    0.000178  -0.001019   0.002253  -0.000032   0.000199  -0.000307
     7  H    0.000042   0.001795   0.000000   0.000000   0.000000   0.000000
     8  O   -0.000039  -0.000349  -0.000569   0.000009  -0.000110   0.000106
     9  O    0.000019   0.000011   0.000000   0.000000   0.000000  -0.001666
    10  H    0.000002  -0.000031  -0.000001   0.000000   0.000000   0.000052
    11  H   -0.000003  -0.000011   0.000000   0.000000   0.000000  -0.000012
    12  O   -0.001187   0.061016   0.000001   0.000000  -0.000002   0.000000
    13  H   -0.000093  -0.007071   0.000000   0.000000   0.000000   0.000000
    14  H   -0.000081  -0.000491   0.000000   0.000000   0.000000   0.000000
    15  O    0.000000   0.000000  -0.067926   0.002061   0.037470   0.000000
    16  H    0.000000   0.000000   0.004562  -0.000150   0.001196   0.000000
    17  H    0.000000   0.000000   0.004420  -0.000019  -0.001053   0.000000
    18  O    0.000000   0.000000   0.000208  -0.000006   0.000035   0.000000
    19  H    0.000000   0.000000  -0.000002   0.000000   0.000000   0.000000
    20  H    0.000000   0.000000   0.000000   0.000000   0.000000   0.000000
    21  O    0.000000   0.000000  -0.004469   0.000038   0.001044   0.000000
    22  H    0.000000   0.000000   0.000213  -0.000007  -0.000025   0.000000
    23  H    0.000000   0.000000   0.000087  -0.000001   0.000017   0.000000
    24  O    0.000001   0.000149  -0.000005   0.000000   0.000000  -0.000659
    25  H    0.000000  -0.000001   0.000006   0.000000   0.000000   0.000007
    26  H    0.000000  -0.000012   0.000000   0.000000   0.000000  -0.000016
    27  O    0.000000   0.000000   0.000000   0.000000   0.000000   0.000000
    28  H    0.000000   0.000000   0.000000   0.000000   0.000000   0.000000
    29  H    0.000000   0.000000   0.000000   0.000000   0.000000   0.000000
    30  O    0.000000   0.000000   0.000000   0.000000   0.000000  -0.075270
    31  H    0.000000   0.000000   0.000000   0.000000   0.000000   0.002145
    32  H    0.000000   0.000000   0.000000   0.000000   0.000000   0.001623
    33  O   -0.000232   0.000697   0.000005   0.000000   0.000000  -0.000005
    34  H    0.000000  -0.000017   0.000000   0.000000   0.000000   0.000000
    35  H    0.000001  -0.000012   0.000000   0.000000   0.000000   0.000000
    36  O    0.225192   0.131275   0.000000   0.000000   0.000000   0.000000
    37  H    0.182122  -0.003459   0.000000   0.000000   0.000000   0.000000
    38  H   -0.003459   0.187943   0.000000   0.000000   0.000000   0.000000
    39  O    0.000000   0.000000   8.938982   0.220827   0.151871   0.000000
    40  H    0.000000   0.000000   0.220827   0.193307  -0.004627   0.000000
    41  H    0.000000   0.000000   0.151871  -0.004627   0.181860   0.000000
    42  O    0.000000   0.000000   0.000000   0.000000   0.000000   8.981934
    43  H    0.000000   0.000000   0.000000   0.000000   0.000000   0.161712
    44  H    0.000000   0.000000   0.000000   0.000000   0.000000   0.198144
    45  O    0.000000   0.000000  -0.000003  -0.000011  -0.000002   0.000000
    46  H    0.000000   0.000000   0.000001   0.000000   0.000000   0.000000
    47  H    0.000000   0.000000  -0.000002   0.000001   0.000000   0.000000
    48  O    0.000000   0.000000   0.000290   0.000000  -0.000031  -0.000070
    49  H    0.000000   0.000000  -0.000019   0.000000   0.000000  -0.000013
    50  H    0.000000   0.000000   0.000091   0.000001  -0.000002   0.000102
              43         44         45         46         47         48
     1  C    0.000000   0.000000  -0.007782   0.000320  -0.000679   0.000050
     2  H    0.000000   0.000000  -0.000070   0.000001  -0.000002   0.000000
     3  H    0.000000   0.000000  -0.000333   0.000007   0.000005   0.000000
     4  C    0.000066   0.000007   0.010702  -0.000635  -0.000212  -0.001354
     5  H    0.000000   0.000000  -0.000002   0.000000   0.000000   0.000000
     6  C    0.000014   0.000000  -0.000861   0.000029   0.000079   0.001922
     7  H    0.000000   0.000000   0.000000   0.000000   0.000000  -0.000046
     8  O   -0.000029  -0.000002   0.000021   0.000000   0.000000  -0.000683
     9  O   -0.000056   0.000021   0.000000   0.000000   0.000000  -0.001378
    10  H    0.000016   0.000000   0.000000   0.000000   0.000000   0.000345
    11  H    0.000008   0.000000   0.000000   0.000000   0.000000  -0.000078
    12  O    0.000000   0.000000   0.000000   0.000000   0.000000   0.000290
    13  H    0.000000   0.000000   0.000000   0.000000   0.000000  -0.000056
    14  H    0.000000   0.000000   0.000000   0.000000   0.000000  -0.000023
    15  O    0.000000   0.000000   0.000068   0.000001  -0.000006  -0.000088
    16  H    0.000000   0.000000   0.000000   0.000000   0.000000   0.000001
    17  H    0.000000   0.000000   0.000004   0.000000   0.000000  -0.000018
    18  O    0.000000   0.000000  -0.000002   0.000000   0.000000   0.000000
    19  H    0.000000   0.000000   0.000000   0.000000   0.000000   0.000000
    20  H    0.000000   0.000000   0.000000   0.000000   0.000000   0.000000
    21  O    0.000000   0.000000  -0.000004   0.000000   0.000000  -0.000001
    22  H    0.000000   0.000000   0.000000   0.000000   0.000000   0.000000
    23  H    0.000000   0.000000   0.000000   0.000000   0.000000   0.000000
    24  O    0.000177   0.000007   0.000000   0.000000   0.000000  -0.097298
    25  H   -0.000018   0.000000   0.000000   0.000000   0.000000  -0.044213
    26  H   -0.000054   0.000000   0.000000   0.000000   0.000000   0.001106
    27  O    0.000000   0.000000   0.000000   0.000000   0.000000   0.000000
    28  H    0.000000   0.000000   0.000000   0.000000   0.000000   0.000000
    29  H    0.000000   0.000000   0.000000   0.000000   0.000000   0.000000
    30  O    0.018530   0.000954   0.000000   0.000000   0.000000  -0.001265
    31  H    0.001090   0.000037   0.000000   0.000000   0.000000   0.000327
    32  H    0.000482   0.000006   0.000000   0.000000   0.000000  -0.000012
    33  O   -0.000001   0.000000   0.000000   0.000000   0.000000  -0.004959
    34  H    0.000000   0.000000   0.000000   0.000000   0.000000   0.000139
    35  H    0.000000   0.000000   0.000000   0.000000   0.000000  -0.001262
    36  O    0.000000   0.000000   0.000000   0.000000   0.000000   0.000001
    37  H    0.000000   0.000000   0.000000   0.000000   0.000000   0.000000
    38  H    0.000000   0.000000   0.000000   0.000000   0.000000   0.000000
    39  O    0.000000   0.000000  -0.000003   0.000001  -0.000002   0.000290
    40  H    0.000000   0.000000  -0.000011   0.000000   0.000001   0.000000
    41  H    0.000000   0.000000  -0.000002   0.000000   0.000000  -0.000031
    42  O    0.161712   0.198144   0.000000   0.000000   0.000000  -0.000070
    43  H    0.196990  -0.002189   0.000000   0.000000   0.000000   0.000004
    44  H   -0.002189   0.179684   0.000000   0.000000   0.000000   0.000000
    45  O    0.000000   0.000000   8.643673   0.245684   0.218586   0.000000
    46  H    0.000000   0.000000   0.245684   0.258458  -0.013510   0.000000
    47  H    0.000000   0.000000   0.218586  -0.013510   0.192605   0.000000
    48  O    0.000004   0.000000   0.000000   0.000000   0.000000   8.923923
    49  H    0.000000   0.000000   0.000000   0.000000   0.000000   0.195628
    50  H    0.000005   0.000000   0.000000   0.000000   0.000000   0.213388
              49         50
     1  C    0.000014   0.000120
     2  H    0.000000  -0.000001
     3  H    0.000000   0.000000
     4  C    0.000012  -0.000231
     5  H    0.000000   0.000000
     6  C   -0.000212   0.000318
     7  H    0.000000   0.000000
     8  O   -0.000168   0.000191
     9  O   -0.000002   0.000028
    10  H    0.000000  -0.000005
    11  H    0.000000   0.000000
    12  O    0.000001  -0.000008
    13  H    0.000000   0.000000
    14  H   -0.000001   0.000001
    15  O    0.000006  -0.000008
    16  H    0.000000   0.000000
    17  H    0.000000   0.000001
    18  O    0.000000   0.000000
    19  H    0.000000   0.000000
    20  H    0.000000   0.000000
    21  O    0.000000   0.000000
    22  H    0.000000   0.000000
    23  H    0.000000   0.000000
    24  O   -0.000502   0.002052
    25  H    0.001523   0.003236
    26  H    0.000073  -0.000152
    27  O    0.000000   0.000000
    28  H    0.000000   0.000000
    29  H    0.000000   0.000000
    30  O    0.000020  -0.000064
    31  H    0.000001   0.000018
    32  H    0.000000   0.000001
    33  O    0.000308   0.000060
    34  H   -0.000012  -0.000001
    35  H   -0.000021  -0.000010
    36  O    0.000000   0.000000
    37  H    0.000000   0.000000
    38  H    0.000000   0.000000
    39  O   -0.000019   0.000091
    40  H    0.000000   0.000001
    41  H    0.000000  -0.000002
    42  O   -0.000013   0.000102
    43  H    0.000000   0.000005
    44  H    0.000000   0.000000
    45  O    0.000000   0.000000
    46  H    0.000000   0.000000
    47  H    0.000000   0.000000
    48  O    0.195628   0.213388
    49  H    0.156438  -0.003597
    50  H   -0.003597   0.194707
 Mulliken charges:
               1
     1  C   -0.419079
     2  H    0.283717
     3  H    0.239554
     4  C   -0.258807
     5  H    0.227620
     6  C    0.129611
     7  H    0.222707
     8  O   -0.410361
     9  O   -1.236656
    10  H    0.545493
    11  H    0.683968
    12  O   -1.093089
    13  H    0.421410
    14  H    0.638811
    15  O   -1.100813
    16  H    0.601674
    17  H    0.467171
    18  O   -1.157286
    19  H    0.576887
    20  H    0.606539
    21  O   -1.157087
    22  H    0.575365
    23  H    0.616448
    24  O   -1.399949
    25  H    0.725485
    26  H    0.644460
    27  O   -1.183074
    28  H    0.603419
    29  H    0.593247
    30  O   -1.188279
    31  H    0.640079
    32  H    0.570382
    33  O   -1.255365
    34  H    0.598008
    35  H    0.653883
    36  O   -1.241609
    37  H    0.597172
    38  H    0.626739
    39  O   -1.246306
    40  H    0.588643
    41  H    0.631865
    42  O   -1.268000
    43  H    0.623253
    44  H    0.623332
    45  O   -1.109667
    46  H    0.509646
    47  H    0.603135
    48  O   -1.184579
    49  H    0.650523
    50  H    0.589758
 Sum of Mulliken charges =   0.00000
 Mulliken charges with hydrogens summed into heavy atoms:
               1
     1  C    0.104193
     4  C   -0.031187
     6  C    0.352319
     8  O   -0.410361
     9  O   -0.007195
    12  O   -0.032868
    15  O   -0.031968
    18  O    0.026140
    21  O    0.034726
    24  O   -0.030003
    27  O    0.013591
    30  O    0.022183
    33  O   -0.003474
    36  O   -0.017697
    39  O   -0.025799
    42  O   -0.021415
    45  O    0.003113
    48  O    0.055701
 Electronic spatial extent (au):  <R**2>=          11929.6609
 Charge=              0.0000 electrons
 Dipole moment (field-independent basis, Debye):
    X=            -13.3061    Y=             -0.3958    Z=             -7.3403  Tot=             15.2016
 Quadrupole moment (field-independent basis, Debye-Ang):
   XX=            -37.3848   YY=           -154.2476   ZZ=           -118.3081
   XY=            -16.4590   XZ=              8.2180   YZ=             -5.1541
 Traceless Quadrupole moment (field-independent basis, Debye-Ang):
   XX=             65.9287   YY=            -50.9341   ZZ=            -14.9946
   XY=            -16.4590   XZ=              8.2180   YZ=             -5.1541
 Octapole moment (field-independent basis, Debye-Ang**2):
  XXX=           -355.1287  YYY=            265.6026  ZZZ=             19.9537  XYY=           -245.2448
  XXY=           -119.2227  XXZ=           -203.4620  XZZ=             23.4675  YZZ=            -75.5016
  YYZ=             39.1392  XYZ=             -3.7207
 Hexadecapole moment (field-independent basis, Debye-Ang**3):
 XXXX=          -4229.5821 YYYY=          -5880.5457 ZZZZ=          -1789.1236 XXXY=            -18.1004
 XXXZ=           -270.1471 YYYX=           -258.0322 YYYZ=           -269.2779 ZZZX=            380.9179
 ZZZY=           -104.6790 XXYY=           -907.9884 XXZZ=          -1267.4706 YYZZ=          -1306.4141
 XXYZ=            161.8819 YYXZ=             48.8769 ZZXY=             83.8749
 N-N= 1.113314834851D+03 E-N=-6.195056185571D+03  KE= 1.249718426889D+03
 Leave Link  601 at Fri Sep 14 18:35:18 2018, MaxMem=    33554432 cpu:        11.5
 (Enter /usr/local/pacerepov1/gaussian/G09D01LINDA/g09/l9999.exe)

 Test job not archived.
 1\1\GINC-IW-K41-38-L\SP\RLC-wPBE TD-FC\6-31+G(d)\C3H32O15\ROOT\14-Sep-
 2018\0\\#p td=(nstates=15)/6-31+g(d) lc-wpbe charge\\Acroleina in Wate
 r\\0,1\C,0,0.485154,0.480443,-1.430142\H,0,1.461403,0.187773,-1.055732
 \H,0,0.429244,0.878853,-2.437062\C,0,-0.605127,0.346563,-0.658432\H,0,
 -1.591686,0.632893,-1.012412\C,0,-0.508516,-0.199107,0.712798\H,0,-1.4
 58487,-0.272107,1.272438\O,0,0.544883,-0.561317,1.236519\O,0,0.498484,
 -3.096441,2.328441\H,0,0.142754,-2.471791,1.633221\H,0,-0.228756,-3.71
 645,2.622841\O,0,-1.455246,-0.230481,2.877391\H,0,-1.044926,-0.560491,
 2.027251\H,0,-0.761826,-0.214221,3.597771\O,0,2.194854,2.529119,-0.231
 189\H,0,1.899904,3.4828,-0.290909\H,0,1.442504,1.96869,0.115071\O,0,-0
 .514366,4.680779,-0.889129\H,0,-0.355736,5.189879,-1.735099\H,0,-1.481
 416,4.739359,-0.641259\O,0,1.853634,4.77494,-0.521639\H,0,2.202014,5.2
 29909,-1.341169\H,0,0.858494,4.696509,-0.581539\O,0,1.900324,-1.994151
 ,3.921331\H,0,2.650224,-1.60118,3.389091\H,0,1.324964,-2.55311,3.32420
 1\O,0,-2.986706,5.054599,-0.852659\H,0,-3.753826,4.587999,-1.292909\H,
 0,-3.286756,5.43802,0.020821\O,0,2.068774,-4.787691,1.441421\H,0,1.485
 604,-4.064391,1.811331\H,0,2.230224,-5.478651,2.146081\O,0,0.274734,-0
 .532951,4.582101\H,0,0.665794,0.040519,5.301981\H,0,0.966904,-1.176911
 ,4.256151\O,0,-3.673246,-0.871301,3.911681\H,0,-3.506776,-1.75391,4.35
 1361\H,0,-2.858366,-0.593401,3.403001\O,0,4.539644,1.949229,-0.186479\
 H,0,4.818864,2.10958,-1.133229\H,0,3.575294,2.19071,-0.077979\O,0,4.10
 3094,-4.54276,0.132741\H,0,3.258794,-4.598411,0.665791\H,0,4.108874,-5
 .265181,-0.558739\O,0,2.961044,-0.613261,-4.887459\H,0,2.481634,0.0303
 29,-5.484139\H,0,3.793804,-0.185201,-4.536299\O,0,3.804224,-1.32801,2.
 981221\H,0,4.035574,-0.535201,3.545121\H,0,4.256474,-1.24849,2.092851\
 \Version=EM64L-G09RevD.01\State=1-A\HF=-1758.9813701\RMSD=9.047e-09\PG
 =C01 [X(C3H32O15)]\\@


 NATURE WILL TELL YOU A DIRECT LIE IF SHE CAN.

                                -- CHARLES DARWIN
 Job cpu time:       0 days  2 hours 47 minutes 26.4 seconds.
 File lengths (MBytes):  RWF=    792 Int=      0 D2E=      0 Chk=     96 Scr=      2
 Normal termination of Gaussian 09 at Fri Sep 14 18:35:22 2018.
