 Entering Gaussian System, Link 0=g09
 Input=Acroleina_water_15_39c.gjf
 Output=Acroleina_water_15_39c.log
 Initial command:
 /usr/local/pacerepov1/gaussian/G09D01LINDA/g09/l1.exe /nv/hp18/holiveira7/scratch/22411899/Gau-22249.inp -scrdir=/nv/hp18/holiveira7/scratch/22411899/
 Entering Link 1 = /usr/local/pacerepov1/gaussian/G09D01LINDA/g09/l1.exe PID=     22250.
  
 Copyright (c) 1988,1990,1992,1993,1995,1998,2003,2009,2013,
            Gaussian, Inc.  All Rights Reserved.
  
 This is part of the Gaussian(R) 09 program.  It is based on
 the Gaussian(R) 03 system (copyright 2003, Gaussian, Inc.),
 the Gaussian(R) 98 system (copyright 1998, Gaussian, Inc.),
 the Gaussian(R) 94 system (copyright 1995, Gaussian, Inc.),
 the Gaussian 92(TM) system (copyright 1992, Gaussian, Inc.),
 the Gaussian 90(TM) system (copyright 1990, Gaussian, Inc.),
 the Gaussian 88(TM) system (copyright 1988, Gaussian, Inc.),
 the Gaussian 86(TM) system (copyright 1986, Carnegie Mellon
 University), and the Gaussian 82(TM) system (copyright 1983,
 Carnegie Mellon University). Gaussian is a federally registered
 trademark of Gaussian, Inc.
  
 This software contains proprietary and confidential information,
 including trade secrets, belonging to Gaussian, Inc.
  
 This software is provided under written license and may be
 used, copied, transmitted, or stored only in accord with that
 written license.
  
 The following legend is applicable only to US Government
 contracts under FAR:
  
                    RESTRICTED RIGHTS LEGEND
  
 Use, reproduction and disclosure by the US Government is
 subject to restrictions as set forth in subparagraphs (a)
 and (c) of the Commercial Computer Software - Restricted
 Rights clause in FAR 52.227-19.
  
 Gaussian, Inc.
 340 Quinnipiac St., Bldg. 40, Wallingford CT 06492
  
  
 ---------------------------------------------------------------
 Warning -- This program may not be used in any manner that
 competes with the business of Gaussian, Inc. or will provide
 assistance to any competitor of Gaussian, Inc.  The licensee
 of this program is prohibited from giving any competitor of
 Gaussian, Inc. access to this program.  By using this program,
 the user acknowledges that Gaussian, Inc. is engaged in the
 business of creating and licensing software in the field of
 computational chemistry and represents and warrants to the
 licensee that it is not a competitor of Gaussian, Inc. and that
 it will not use this program in any manner prohibited above.
 ---------------------------------------------------------------
  

 Cite this work as:
 Gaussian 09, Revision D.01,
 M. J. Frisch, G. W. Trucks, H. B. Schlegel, G. E. Scuseria, 
 M. A. Robb, J. R. Cheeseman, G. Scalmani, V. Barone, B. Mennucci, 
 G. A. Petersson, H. Nakatsuji, M. Caricato, X. Li, H. P. Hratchian, 
 A. F. Izmaylov, J. Bloino, G. Zheng, J. L. Sonnenberg, M. Hada, 
 M. Ehara, K. Toyota, R. Fukuda, J. Hasegawa, M. Ishida, T. Nakajima, 
 Y. Honda, O. Kitao, H. Nakai, T. Vreven, J. A. Montgomery, Jr., 
 J. E. Peralta, F. Ogliaro, M. Bearpark, J. J. Heyd, E. Brothers, 
 K. N. Kudin, V. N. Staroverov, T. Keith, R. Kobayashi, J. Normand, 
 K. Raghavachari, A. Rendell, J. C. Burant, S. S. Iyengar, J. Tomasi, 
 M. Cossi, N. Rega, J. M. Millam, M. Klene, J. E. Knox, J. B. Cross, 
 V. Bakken, C. Adamo, J. Jaramillo, R. Gomperts, R. E. Stratmann, 
 O. Yazyev, A. J. Austin, R. Cammi, C. Pomelli, J. W. Ochterski, 
 R. L. Martin, K. Morokuma, V. G. Zakrzewski, G. A. Voth, 
 P. Salvador, J. J. Dannenberg, S. Dapprich, A. D. Daniels, 
 O. Farkas, J. B. Foresman, J. V. Ortiz, J. Cioslowski, 
 and D. J. Fox, Gaussian, Inc., Wallingford CT, 2013.
 
 ******************************************
 Gaussian 09:  EM64L-G09RevD.01 24-Apr-2013
                14-Sep-2018 
 ******************************************
 %chk=Acrolina_Din_39.chk
 %nprocshared=10
 Will use up to   10 processors via shared memory.
 -------------------------------------------
 #p td=(nstates=15)/6-31+g(d) lc-wpbe charge
 -------------------------------------------
 1/18=10,28=-2,38=1,125=101/1;
 2/12=2,17=6,18=5,40=1/2;
 3/5=1,6=6,7=11,11=9,16=1,25=1,30=1,74=-41/1,2,8,3;
 4//1;
 5/5=2,38=5/2;
 8/6=1,10=2,108=15/1;
 9/41=15,42=1,70=2/14;
 6/7=2,8=2,9=2,10=2/1;
 99/5=1,9=1/99;
 Leave Link    1 at Fri Sep 14 17:10:35 2018, MaxMem=           0 cpu:         3.4
 (Enter /usr/local/pacerepov1/gaussian/G09D01LINDA/g09/l101.exe)
 ------------------
 Acroleina in Water
 ------------------
 Symbolic Z-matrix:
 Charge =  0 Multiplicity = 1
 C                     0.48515   0.48044  -1.43014 
 H                     1.4614    0.18777  -1.05573 
 H                     0.42924   0.87885  -2.43706 
 C                    -0.60513   0.34656  -0.65843 
 H                    -1.59169   0.63289  -1.01241 
 C                    -0.50852  -0.19911   0.7128 
 H                    -1.45849  -0.27211   1.27244 
 O                     0.54488  -0.56132   1.23652 
 O                    -1.34665  -1.13503   3.19096 
 H                    -0.92992  -0.53717   2.50619 
 H                    -0.9521   -0.93918   4.08874 
 O                     2.2912    1.45907   1.09595 
 H                     2.04611   2.35195   0.71808 
 H                     1.45899   0.94067   1.29274 
 O                     3.13554  -1.42479  -4.0556 
 H                     2.7296   -0.97688  -4.85227 
 H                     3.72468  -0.77663  -3.57306 
 O                     4.65552   1.29598   0.76135 
 H                     4.87579   1.35133  -0.21254 
 H                     3.66246   1.2996    0.87916 
 O                    -0.75471   3.71368  -0.46822 
 H                    -0.31307   4.54213  -0.8127 
 H                    -1.74752   3.81227  -0.53644 
 O                    -0.09175  -3.18862   2.74904 
 H                    -0.68237  -2.41433   2.97639 
 H                    -0.49825  -4.03216   3.10002 
 O                     1.60354   3.65368   0.47811 
 H                     2.05076   3.9842   -0.35301 
 H                     0.6253    3.53697   0.30631 
 O                     4.59902  -3.16811  -3.89139 
 H                     5.25781  -2.85474  -3.20737 
 H                     3.87935  -2.48227  -3.99975 
 O                    -3.48369  -1.5572    3.81854 
 H                    -3.46477  -2.13851   4.63204 
 H                    -2.5715   -1.526     3.40992 
 O                    -3.21407   4.42799   1.61452 
 H                    -4.21347   4.40538   1.64267 
 H                    -2.84874   3.6421    2.11349 
 O                     2.03448  -0.26924  -5.98877 
 H                     2.13339   0.40231  -6.72313 
 H                     1.21511  -0.06084  -5.45475 
 O                    -3.28268   4.11434  -0.75247 
 H                    -4.12134   3.58324  -0.87343 
 H                    -3.21921   4.42567   0.19573 
 O                     0.09368  -1.00789   5.35462 
 H                     0.62766  -0.36881   5.9082 
 H                     0.69636  -1.46844   4.70294 
 O                     4.91326   1.52785  -1.64075 
 H                     4.54863   2.43613  -1.84608 
 H                     4.93655   0.98101  -2.47772 
 
 NAtoms=     50 NQM=       50 NQMF=       0 NMMI=      0 NMMIF=      0
                NMic=       0 NMicF=      0.
                    Isotopes and Nuclear Properties:
 (Nuclear quadrupole moments (NQMom) in fm**2, nuclear magnetic moments (NMagM)
  in nuclear magnetons)

  Atom         1           2           3           4           5           6           7           8           9          10
 IAtWgt=          12           1           1          12           1          12           1          16          16           1
 AtmWgt=  12.0000000   1.0078250   1.0078250  12.0000000   1.0078250  12.0000000   1.0078250  15.9949146  15.9949146   1.0078250
 NucSpn=           0           1           1           0           1           0           1           0           0           1
 AtZEff=   0.0000000   0.0000000   0.0000000   0.0000000   0.0000000   0.0000000   0.0000000   0.0000000   0.0000000   0.0000000
 NQMom=    0.0000000   0.0000000   0.0000000   0.0000000   0.0000000   0.0000000   0.0000000   0.0000000   0.0000000   0.0000000
 NMagM=    0.0000000   2.7928460   2.7928460   0.0000000   2.7928460   0.0000000   2.7928460   0.0000000   0.0000000   2.7928460
 AtZNuc=   6.0000000   1.0000000   1.0000000   6.0000000   1.0000000   6.0000000   1.0000000   8.0000000   8.0000000   1.0000000

  Atom        11          12          13          14          15          16          17          18          19          20
 IAtWgt=           1          16           1           1          16           1           1          16           1           1
 AtmWgt=   1.0078250  15.9949146   1.0078250   1.0078250  15.9949146   1.0078250   1.0078250  15.9949146   1.0078250   1.0078250
 NucSpn=           1           0           1           1           0           1           1           0           1           1
 AtZEff=   0.0000000   0.0000000   0.0000000   0.0000000   0.0000000   0.0000000   0.0000000   0.0000000   0.0000000   0.0000000
 NQMom=    0.0000000   0.0000000   0.0000000   0.0000000   0.0000000   0.0000000   0.0000000   0.0000000   0.0000000   0.0000000
 NMagM=    2.7928460   0.0000000   2.7928460   2.7928460   0.0000000   2.7928460   2.7928460   0.0000000   2.7928460   2.7928460
 AtZNuc=   1.0000000   8.0000000   1.0000000   1.0000000   8.0000000   1.0000000   1.0000000   8.0000000   1.0000000   1.0000000

  Atom        21          22          23          24          25          26          27          28          29          30
 IAtWgt=          16           1           1          16           1           1          16           1           1          16
 AtmWgt=  15.9949146   1.0078250   1.0078250  15.9949146   1.0078250   1.0078250  15.9949146   1.0078250   1.0078250  15.9949146
 NucSpn=           0           1           1           0           1           1           0           1           1           0
 AtZEff=   0.0000000   0.0000000   0.0000000   0.0000000   0.0000000   0.0000000   0.0000000   0.0000000   0.0000000   0.0000000
 NQMom=    0.0000000   0.0000000   0.0000000   0.0000000   0.0000000   0.0000000   0.0000000   0.0000000   0.0000000   0.0000000
 NMagM=    0.0000000   2.7928460   2.7928460   0.0000000   2.7928460   2.7928460   0.0000000   2.7928460   2.7928460   0.0000000
 AtZNuc=   8.0000000   1.0000000   1.0000000   8.0000000   1.0000000   1.0000000   8.0000000   1.0000000   1.0000000   8.0000000

  Atom        31          32          33          34          35          36          37          38          39          40
 IAtWgt=           1           1          16           1           1          16           1           1          16           1
 AtmWgt=   1.0078250   1.0078250  15.9949146   1.0078250   1.0078250  15.9949146   1.0078250   1.0078250  15.9949146   1.0078250
 NucSpn=           1           1           0           1           1           0           1           1           0           1
 AtZEff=   0.0000000   0.0000000   0.0000000   0.0000000   0.0000000   0.0000000   0.0000000   0.0000000   0.0000000   0.0000000
 NQMom=    0.0000000   0.0000000   0.0000000   0.0000000   0.0000000   0.0000000   0.0000000   0.0000000   0.0000000   0.0000000
 NMagM=    2.7928460   2.7928460   0.0000000   2.7928460   2.7928460   0.0000000   2.7928460   2.7928460   0.0000000   2.7928460
 AtZNuc=   1.0000000   1.0000000   8.0000000   1.0000000   1.0000000   8.0000000   1.0000000   1.0000000   8.0000000   1.0000000

  Atom        41          42          43          44          45          46          47          48          49          50
 IAtWgt=           1          16           1           1          16           1           1          16           1           1
 AtmWgt=   1.0078250  15.9949146   1.0078250   1.0078250  15.9949146   1.0078250   1.0078250  15.9949146   1.0078250   1.0078250
 NucSpn=           1           0           1           1           0           1           1           0           1           1
 AtZEff=   0.0000000   0.0000000   0.0000000   0.0000000   0.0000000   0.0000000   0.0000000   0.0000000   0.0000000   0.0000000
 NQMom=    0.0000000   0.0000000   0.0000000   0.0000000   0.0000000   0.0000000   0.0000000   0.0000000   0.0000000   0.0000000
 NMagM=    2.7928460   0.0000000   2.7928460   2.7928460   0.0000000   2.7928460   2.7928460   0.0000000   2.7928460   2.7928460
 AtZNuc=   1.0000000   8.0000000   1.0000000   1.0000000   8.0000000   1.0000000   1.0000000   8.0000000   1.0000000   1.0000000
 Background charge distribution read from input stream:
 Point Charges:
 XYZ=    4.1294   -1.7380    3.2140 Q=   -0.8200 A=    0.0000 R=    0.0000 C=    0.0000
 XYZ=    4.3339   -0.7868    3.4455 Q=    0.4100 A=    0.0000 R=    0.0000 C=    0.0000
 XYZ=    4.5481   -1.9643    2.3345 Q=    0.4100 A=    0.0000 R=    0.0000 C=    0.0000
 XYZ=    5.2811   -0.3676   -3.4555 Q=   -0.8200 A=    0.0000 R=    0.0000 C=    0.0000
 XYZ=    5.7976   -0.3661   -4.3118 Q=    0.4100 A=    0.0000 R=    0.0000 C=    0.0000
 XYZ=    5.5318   -1.1719   -2.9166 Q=    0.4100 A=    0.0000 R=    0.0000 C=    0.0000
 XYZ=    1.6975   -2.4344    4.1524 Q=   -0.8200 A=    0.0000 R=    0.0000 C=    0.0000
 XYZ=    2.6090   -2.3338    3.7535 Q=    0.4100 A=    0.0000 R=    0.0000 C=    0.0000
 XYZ=    1.0943   -2.8866    3.4954 Q=    0.4100 A=    0.0000 R=    0.0000 C=    0.0000
 XYZ=    1.5088   -4.8064    1.5455 Q=   -0.8200 A=    0.0000 R=    0.0000 C=    0.0000
 XYZ=    0.7569   -4.2561    1.9089 Q=    0.4100 A=    0.0000 R=    0.0000 C=    0.0000
 XYZ=    1.8489   -5.4186    2.2593 Q=    0.4100 A=    0.0000 R=    0.0000 C=    0.0000
 XYZ=    6.3981   -0.1462    1.6264 Q=   -0.8200 A=    0.0000 R=    0.0000 C=    0.0000
 XYZ=    5.5793    0.4280    1.6268 Q=    0.4100 A=    0.0000 R=    0.0000 C=    0.0000
 XYZ=    6.1296   -1.1094    1.6106 Q=    0.4100 A=    0.0000 R=    0.0000 C=    0.0000
 XYZ=    3.6268   -4.8718    0.6453 Q=   -0.8200 A=    0.0000 R=    0.0000 C=    0.0000
 XYZ=    2.7338   -4.6526    1.0383 Q=    0.4100 A=    0.0000 R=    0.0000 C=    0.0000
 XYZ=    3.5081   -5.5065   -0.1184 Q=    0.4100 A=    0.0000 R=    0.0000 C=    0.0000
 XYZ=    5.6823   -2.4055    1.4709 Q=   -0.8200 A=    0.0000 R=    0.0000 C=    0.0000
 XYZ=    5.4668   -2.7874    0.5721 Q=    0.4100 A=    0.0000 R=    0.0000 C=    0.0000
 XYZ=    5.8832   -3.1486    2.1093 Q=    0.4100 A=    0.0000 R=    0.0000 C=    0.0000
 XYZ=    6.1627   -2.4289   -2.2972 Q=   -0.8200 A=    0.0000 R=    0.0000 C=    0.0000
 XYZ=    6.8909   -1.8723   -1.8972 Q=    0.4100 A=    0.0000 R=    0.0000 C=    0.0000
 XYZ=    5.6889   -2.9289   -1.5722 Q=    0.4100 A=    0.0000 R=    0.0000 C=    0.0000
 XYZ=    5.4351   -3.6109   -0.4504 Q=   -0.8200 A=    0.0000 R=    0.0000 C=    0.0000
 XYZ=    4.6871   -4.1031   -0.0051 Q=    0.4100 A=    0.0000 R=    0.0000 C=    0.0000
 XYZ=    6.2227   -4.2193   -0.5483 Q=    0.4100 A=    0.0000 R=    0.0000 C=    0.0000
 XYZ=   -5.6746    3.2070   -0.9685 Q=   -0.8200 A=    0.0000 R=    0.0000 C=    0.0000
 XYZ=   -6.2076    3.9545   -0.5721 Q=    0.4100 A=    0.0000 R=    0.0000 C=    0.0000
 XYZ=   -6.2011    2.3584   -0.9172 Q=    0.4100 A=    0.0000 R=    0.0000 C=    0.0000
 XYZ=    3.9090   -5.4468   -3.1228 Q=   -0.8200 A=    0.0000 R=    0.0000 C=    0.0000
 XYZ=    4.3276   -4.5887   -3.4203 Q=    0.4100 A=    0.0000 R=    0.0000 C=    0.0000
 XYZ=    3.1698   -5.6921   -3.7501 Q=    0.4100 A=    0.0000 R=    0.0000 C=    0.0000
 XYZ=   -2.3971    5.8541   -2.0537 Q=   -0.8200 A=    0.0000 R=    0.0000 C=    0.0000
 XYZ=   -2.6439    5.0930   -1.4538 Q=    0.4100 A=    0.0000 R=    0.0000 C=    0.0000
 XYZ=   -2.4793    6.7148   -1.5512 Q=    0.4100 A=    0.0000 R=    0.0000 C=    0.0000
 XYZ=    2.5145    5.2894    1.9827 Q=   -0.8200 A=    0.0000 R=    0.0000 C=    0.0000
 XYZ=    2.2378    4.5387    1.3828 Q=    0.4100 A=    0.0000 R=    0.0000 C=    0.0000
 XYZ=    2.2212    6.1590    1.5855 Q=    0.4100 A=    0.0000 R=    0.0000 C=    0.0000
 XYZ=    5.7054    2.8192    2.5704 Q=   -0.8200 A=    0.0000 R=    0.0000 C=    0.0000
 XYZ=    5.2479    3.6084    2.9800 Q=    0.4100 A=    0.0000 R=    0.0000 C=    0.0000
 XYZ=    5.1051    2.4035    1.8871 Q=    0.4100 A=    0.0000 R=    0.0000 C=    0.0000
 XYZ=    6.9447    0.8055   -0.5540 Q=   -0.8200 A=    0.0000 R=    0.0000 C=    0.0000
 XYZ=    6.1805    1.1270   -1.1131 Q=    0.4100 A=    0.0000 R=    0.0000 C=    0.0000
 XYZ=    6.6500    0.7244    0.3982 Q=    0.4100 A=    0.0000 R=    0.0000 C=    0.0000
 XYZ=   -5.3640   -2.6616    2.3005 Q=   -0.8200 A=    0.0000 R=    0.0000 C=    0.0000
 XYZ=   -4.5548   -2.4421    2.8454 Q=    0.4100 A=    0.0000 R=    0.0000 C=    0.0000
 XYZ=   -5.8492   -3.4296    2.7188 Q=    0.4100 A=    0.0000 R=    0.0000 C=    0.0000
 XYZ=    0.4690    5.1687    3.6364 Q=   -0.8200 A=    0.0000 R=    0.0000 C=    0.0000
 XYZ=   -0.1025    5.8122    3.1273 Q=    0.4100 A=    0.0000 R=    0.0000 C=    0.0000
 XYZ=    1.2727    4.9324    3.0903 Q=    0.4100 A=    0.0000 R=    0.0000 C=    0.0000
 XYZ=   -2.2168    6.4861    1.1627 Q=   -0.8200 A=    0.0000 R=    0.0000 C=    0.0000
 XYZ=   -2.4998    7.1553    1.8499 Q=    0.4100 A=    0.0000 R=    0.0000 C=    0.0000
 XYZ=   -2.5994    5.5910    1.3919 Q=    0.4100 A=    0.0000 R=    0.0000 C=    0.0000
 XYZ=    4.2022   -3.8890   -6.2218 Q=   -0.8200 A=    0.0000 R=    0.0000 C=    0.0000
 XYZ=    4.4211   -3.7467   -5.2565 Q=    0.4100 A=    0.0000 R=    0.0000 C=    0.0000
 XYZ=    5.0261   -4.1737   -6.7119 Q=    0.4100 A=    0.0000 R=    0.0000 C=    0.0000
 XYZ=   -5.5314    4.0235    1.7552 Q=   -0.8200 A=    0.0000 R=    0.0000 C=    0.0000
 XYZ=   -6.1487    4.5701    1.1893 Q=    0.4100 A=    0.0000 R=    0.0000 C=    0.0000
 XYZ=   -5.8477    4.0386    2.7038 Q=    0.4100 A=    0.0000 R=    0.0000 C=    0.0000
 XYZ=    3.7290   -1.9149   -7.2583 Q=   -0.8200 A=    0.0000 R=    0.0000 C=    0.0000
 XYZ=    3.8429   -2.7407   -6.7059 Q=    0.4100 A=    0.0000 R=    0.0000 C=    0.0000
 XYZ=    3.0063   -1.3472   -6.8639 Q=    0.4100 A=    0.0000 R=    0.0000 C=    0.0000
 XYZ=   -1.0713   -2.6618    6.6334 Q=   -0.8200 A=    0.0000 R=    0.0000 C=    0.0000
 XYZ=   -0.5146   -2.0264    6.0982 Q=    0.4100 A=    0.0000 R=    0.0000 C=    0.0000
 XYZ=   -1.8998   -2.8910    6.1224 Q=    0.4100 A=    0.0000 R=    0.0000 C=    0.0000
 XYZ=    2.6180    4.7217   -1.3599 Q=   -0.8200 A=    0.0000 R=    0.0000 C=    0.0000
 XYZ=    3.1046    5.4164   -0.8302 Q=    0.4100 A=    0.0000 R=    0.0000 C=    0.0000
 XYZ=    3.2772    4.1692   -1.8700 Q=    0.4100 A=    0.0000 R=    0.0000 C=    0.0000
 XYZ=    4.4797    0.0392    4.7934 Q=   -0.8200 A=    0.0000 R=    0.0000 C=    0.0000
 XYZ=    4.7293   -0.4574    5.6247 Q=    0.4100 A=    0.0000 R=    0.0000 C=    0.0000
 XYZ=    3.7245    0.6638    4.9924 Q=    0.4100 A=    0.0000 R=    0.0000 C=    0.0000
 XYZ=    1.2606   -6.8208    0.0657 Q=   -0.8200 A=    0.0000 R=    0.0000 C=    0.0000
 XYZ=    1.3191   -5.9019    0.4558 Q=    0.4100 A=    0.0000 R=    0.0000 C=    0.0000
 XYZ=    2.0019   -6.9511   -0.5928 Q=    0.4100 A=    0.0000 R=    0.0000 C=    0.0000
 XYZ=   -3.2350    2.1932   -5.9428 Q=   -0.8200 A=    0.0000 R=    0.0000 C=    0.0000
 XYZ=   -2.9796    3.0918   -5.5860 Q=    0.4100 A=    0.0000 R=    0.0000 C=    0.0000
 XYZ=   -3.1616    2.1974   -6.9401 Q=    0.4100 A=    0.0000 R=    0.0000 C=    0.0000
 XYZ=    4.3899    3.5591   -2.6334 Q=   -0.8200 A=    0.0000 R=    0.0000 C=    0.0000
 XYZ=    5.3165    3.8690   -2.4201 Q=    0.4100 A=    0.0000 R=    0.0000 C=    0.0000
 XYZ=    4.1670    3.8002   -3.5780 Q=    0.4100 A=    0.0000 R=    0.0000 C=    0.0000
 XYZ=   -5.1952   -0.4707    5.2336 Q=   -0.8200 A=    0.0000 R=    0.0000 C=    0.0000
 XYZ=   -4.4615   -0.1861    5.8507 Q=    0.4100 A=    0.0000 R=    0.0000 C=    0.0000
 XYZ=   -4.7994   -0.8844    4.4137 Q=    0.4100 A=    0.0000 R=    0.0000 C=    0.0000
 XYZ=    1.5246    0.2899    6.7092 Q=   -0.8200 A=    0.0000 R=    0.0000 C=    0.0000
 XYZ=    2.0644   -0.3744    7.2263 Q=    0.4100 A=    0.0000 R=    0.0000 C=    0.0000
 XYZ=    2.1383    0.9237    6.2383 Q=    0.4100 A=    0.0000 R=    0.0000 C=    0.0000
 XYZ=   -7.4882    2.3775    1.6171 Q=   -0.8200 A=    0.0000 R=    0.0000 C=    0.0000
 XYZ=   -6.5917    2.8124    1.7023 Q=    0.4100 A=    0.0000 R=    0.0000 C=    0.0000
 XYZ=   -7.5476    1.9059    0.7373 Q=    0.4100 A=    0.0000 R=    0.0000 C=    0.0000
 XYZ=    3.2869   -6.5417   -1.1067 Q=   -0.8200 A=    0.0000 R=    0.0000 C=    0.0000
 XYZ=    3.9144   -7.3051   -0.9532 Q=    0.4100 A=    0.0000 R=    0.0000 C=    0.0000
 XYZ=    3.4565   -6.1473   -2.0098 Q=    0.4100 A=    0.0000 R=    0.0000 C=    0.0000
 XYZ=    5.2133   -3.0111    4.8542 Q=   -0.8200 A=    0.0000 R=    0.0000 C=    0.0000
 XYZ=    4.7071   -2.4713    4.1815 Q=    0.4100 A=    0.0000 R=    0.0000 C=    0.0000
 XYZ=    4.6342   -3.7546    5.1886 Q=    0.4100 A=    0.0000 R=    0.0000 C=    0.0000
 XYZ=   -5.5726    4.1190   -3.3577 Q=   -0.8200 A=    0.0000 R=    0.0000 C=    0.0000
 XYZ=   -5.6388    3.5424   -2.5433 Q=    0.4100 A=    0.0000 R=    0.0000 C=    0.0000
 XYZ=   -6.2866    3.8603   -4.0082 Q=    0.4100 A=    0.0000 R=    0.0000 C=    0.0000
 XYZ=   -5.4097    1.1856   -5.4708 Q=   -0.8200 A=    0.0000 R=    0.0000 C=    0.0000
 XYZ=   -5.2629    0.3519   -4.9383 Q=    0.4100 A=    0.0000 R=    0.0000 C=    0.0000
 XYZ=   -4.5751    1.7364   -5.4644 Q=    0.4100 A=    0.0000 R=    0.0000 C=    0.0000
 XYZ=   -7.2956   -2.5906    0.9962 Q=   -0.8200 A=    0.0000 R=    0.0000 C=    0.0000
 XYZ=   -6.3395   -2.4230    1.2367 Q=    0.4100 A=    0.0000 R=    0.0000 C=    0.0000
 XYZ=   -7.4964   -3.5659    1.0888 Q=    0.4100 A=    0.0000 R=    0.0000 C=    0.0000
 XYZ=    2.3658   -3.2527    6.1902 Q=   -0.8200 A=    0.0000 R=    0.0000 C=    0.0000
 XYZ=    2.1025   -2.7785    5.3500 Q=    0.4100 A=    0.0000 R=    0.0000 C=    0.0000
 XYZ=    2.6009   -2.5807    6.8925 Q=    0.4100 A=    0.0000 R=    0.0000 C=    0.0000
 XYZ=    3.0909    1.6368    5.7856 Q=   -0.8200 A=    0.0000 R=    0.0000 C=    0.0000
 XYZ=    3.6862    1.5370    6.5828 Q=    0.4100 A=    0.0000 R=    0.0000 C=    0.0000
 XYZ=    2.8694    2.6031    5.6539 Q=    0.4100 A=    0.0000 R=    0.0000 C=    0.0000
 XYZ=    0.4545    5.6157   -1.4332 Q=   -0.8200 A=    0.0000 R=    0.0000 C=    0.0000
 XYZ=    1.3974    5.2988   -1.5358 Q=    0.4100 A=    0.0000 R=    0.0000 C=    0.0000
 XYZ=    0.1512    6.0411   -2.2860 Q=    0.4100 A=    0.0000 R=    0.0000 C=    0.0000
 XYZ=   -7.4045    1.3357   -0.6884 Q=   -0.8200 A=    0.0000 R=    0.0000 C=    0.0000
 XYZ=   -7.5309    0.3449   -0.6392 Q=    0.4100 A=    0.0000 R=    0.0000 C=    0.0000
 XYZ=   -7.9204    1.6994   -1.4640 Q=    0.4100 A=    0.0000 R=    0.0000 C=    0.0000
 XYZ=   -2.6607    4.3788   -5.3484 Q=   -0.8200 A=    0.0000 R=    0.0000 C=    0.0000
 XYZ=   -1.7170    4.5112   -5.0453 Q=    0.4100 A=    0.0000 R=    0.0000 C=    0.0000
 XYZ=   -3.2548    5.0368   -4.8855 Q=    0.4100 A=    0.0000 R=    0.0000 C=    0.0000
 XYZ=    7.8659   -1.2125   -1.1238 Q=   -0.8200 A=    0.0000 R=    0.0000 C=    0.0000
 XYZ=    7.4552   -0.3247   -0.9161 Q=    0.4100 A=    0.0000 R=    0.0000 C=    0.0000
 XYZ=    8.3828   -1.5343   -0.3305 Q=    0.4100 A=    0.0000 R=    0.0000 C=    0.0000
 XYZ=    4.2651    4.5406    3.3982 Q=   -0.8200 A=    0.0000 R=    0.0000 C=    0.0000
 XYZ=    3.9635    4.3753    4.3372 Q=    0.4100 A=    0.0000 R=    0.0000 C=    0.0000
 XYZ=    3.4732    4.7568    2.8270 Q=    0.4100 A=    0.0000 R=    0.0000 C=    0.0000
 XYZ=    4.5409   -6.0111    2.5263 Q=   -0.8200 A=    0.0000 R=    0.0000 C=    0.0000
 XYZ=    4.2632   -5.6907    1.6206 Q=    0.4100 A=    0.0000 R=    0.0000 C=    0.0000
 XYZ=    3.7422   -6.3630    3.0147 Q=    0.4100 A=    0.0000 R=    0.0000 C=    0.0000
 XYZ=    1.0860    5.4904    5.7902 Q=   -0.8200 A=    0.0000 R=    0.0000 C=    0.0000
 XYZ=    0.7932    5.2165    4.8741 Q=    0.4100 A=    0.0000 R=    0.0000 C=    0.0000
 XYZ=    0.6509    4.8996    6.4697 Q=    0.4100 A=    0.0000 R=    0.0000 C=    0.0000
 XYZ=   -1.0899   -5.1618    3.8818 Q=   -0.8200 A=    0.0000 R=    0.0000 C=    0.0000
 XYZ=   -1.3749   -5.7500    3.1250 Q=    0.4100 A=    0.0000 R=    0.0000 C=    0.0000
 XYZ=   -0.2682   -5.5409    4.3074 Q=    0.4100 A=    0.0000 R=    0.0000 C=    0.0000
 XYZ=    8.0213   -2.3613   -4.1794 Q=   -0.8200 A=    0.0000 R=    0.0000 C=    0.0000
 XYZ=    8.8836   -2.0947   -3.7486 Q=    0.4100 A=    0.0000 R=    0.0000 C=    0.0000
 XYZ=    7.3491   -2.5803   -3.4721 Q=    0.4100 A=    0.0000 R=    0.0000 C=    0.0000
 XYZ=    6.7296   -0.5521   -5.2960 Q=   -0.8200 A=    0.0000 R=    0.0000 C=    0.0000
 XYZ=    7.1891    0.3344   -5.2403 Q=    0.4100 A=    0.0000 R=    0.0000 C=    0.0000
 XYZ=    7.3577   -1.2722   -5.0012 Q=    0.4100 A=    0.0000 R=    0.0000 C=    0.0000
 XYZ=    3.9626    3.9786   -5.0106 Q=   -0.8200 A=    0.0000 R=    0.0000 C=    0.0000
 XYZ=    4.7148    4.6232   -4.8734 Q=    0.4100 A=    0.0000 R=    0.0000 C=    0.0000
 XYZ=    4.2766    3.2154   -5.5754 Q=    0.4100 A=    0.0000 R=    0.0000 C=    0.0000
 XYZ=    6.0124   -4.1610    2.7931 Q=   -0.8200 A=    0.0000 R=    0.0000 C=    0.0000
 XYZ=    6.0220   -3.8893    3.7554 Q=    0.4100 A=    0.0000 R=    0.0000 C=    0.0000
 XYZ=    5.4733   -4.9967    2.6881 Q=    0.4100 A=    0.0000 R=    0.0000 C=    0.0000
 XYZ=    6.2739   -6.2917   -2.4128 Q=   -0.8200 A=    0.0000 R=    0.0000 C=    0.0000
 XYZ=    5.3519   -5.9940   -2.6607 Q=    0.4100 A=    0.0000 R=    0.0000 C=    0.0000
 XYZ=    6.7936   -6.4931   -3.2431 Q=    0.4100 A=    0.0000 R=    0.0000 C=    0.0000
 XYZ=    6.3311    1.7288    4.4985 Q=   -0.8200 A=    0.0000 R=    0.0000 C=    0.0000
 XYZ=    6.1326    2.1223    3.6009 Q=    0.4100 A=    0.0000 R=    0.0000 C=    0.0000
 XYZ=    5.6741    1.0012    4.6961 Q=    0.4100 A=    0.0000 R=    0.0000 C=    0.0000
 XYZ=    5.7978   -0.8795   -7.3073 Q=   -0.8200 A=    0.0000 R=    0.0000 C=    0.0000
 XYZ=    6.1837   -0.6902   -6.4043 Q=    0.4100 A=    0.0000 R=    0.0000 C=    0.0000
 XYZ=    4.8943   -1.2951   -7.2032 Q=    0.4100 A=    0.0000 R=    0.0000 C=    0.0000
 XYZ=   -8.0623   -0.9668   -0.6324 Q=   -0.8200 A=    0.0000 R=    0.0000 C=    0.0000
 XYZ=   -8.3343   -1.6502   -1.3098 Q=    0.4100 A=    0.0000 R=    0.0000 C=    0.0000
 XYZ=   -7.7906   -1.4258    0.2135 Q=    0.4100 A=    0.0000 R=    0.0000 C=    0.0000
 XYZ=    8.7968    0.0330    1.8146 Q=   -0.8200 A=    0.0000 R=    0.0000 C=    0.0000
 XYZ=    9.0854   -0.0745    2.7660 Q=    0.4100 A=    0.0000 R=    0.0000 C=    0.0000
 XYZ=    7.8339   -0.2224    1.7276 Q=    0.4100 A=    0.0000 R=    0.0000 C=    0.0000
 XYZ=   -3.3800   -2.9061    5.8270 Q=   -0.8200 A=    0.0000 R=    0.0000 C=    0.0000
 XYZ=   -3.9858   -3.0357    6.6120 Q=    0.4100 A=    0.0000 R=    0.0000 C=    0.0000
 XYZ=   -3.1749   -3.7936    5.4142 Q=    0.4100 A=    0.0000 R=    0.0000 C=    0.0000
 XYZ=   -4.0151    5.7585   -3.8201 Q=   -0.8200 A=    0.0000 R=    0.0000 C=    0.0000
 XYZ=   -3.3512    5.9469   -3.0964 Q=    0.4100 A=    0.0000 R=    0.0000 C=    0.0000
 XYZ=   -4.7063    5.1205   -3.4804 Q=    0.4100 A=    0.0000 R=    0.0000 C=    0.0000
 XYZ=    0.3334    1.9376    8.1390 Q=   -0.8200 A=    0.0000 R=    0.0000 C=    0.0000
 XYZ=    0.7311    1.1423    7.6815 Q=    0.4100 A=    0.0000 R=    0.0000 C=    0.0000
 XYZ=   -0.6562    1.8168    8.2172 Q=    0.4100 A=    0.0000 R=    0.0000 C=    0.0000
 XYZ=   -3.0678   -4.9624    4.9817 Q=   -0.8200 A=    0.0000 R=    0.0000 C=    0.0000
 XYZ=   -2.3353   -4.9692    4.3010 Q=    0.4100 A=    0.0000 R=    0.0000 C=    0.0000
 XYZ=   -2.9361   -5.7203    5.6207 Q=    0.4100 A=    0.0000 R=    0.0000 C=    0.0000
 XYZ=   -2.5698    7.8210   -0.7422 Q=   -0.8200 A=    0.0000 R=    0.0000 C=    0.0000
 XYZ=   -1.9461    8.5931   -0.6195 Q=    0.4100 A=    0.0000 R=    0.0000 C=    0.0000
 XYZ=   -2.4257    7.1565   -0.0089 Q=    0.4100 A=    0.0000 R=    0.0000 C=    0.0000
 XYZ=   -8.3136    0.5952    2.9841 Q=   -0.8200 A=    0.0000 R=    0.0000 C=    0.0000
 XYZ=   -7.9708    1.3073    2.3714 Q=    0.4100 A=    0.0000 R=    0.0000 C=    0.0000
 XYZ=   -8.0384    0.8025    3.9229 Q=    0.4100 A=    0.0000 R=    0.0000 C=    0.0000
 XYZ=   -0.6220    6.8290   -3.5934 Q=   -0.8200 A=    0.0000 R=    0.0000 C=    0.0000
 XYZ=   -1.2345    6.4131   -2.9211 Q=    0.4100 A=    0.0000 R=    0.0000 C=    0.0000
 XYZ=   -0.4706    6.1892   -4.3469 Q=    0.4100 A=    0.0000 R=    0.0000 C=    0.0000
 XYZ=    2.3461    1.2150   -7.9554 Q=   -0.8200 A=    0.0000 R=    0.0000 C=    0.0000
 XYZ=    3.3377    1.1481   -7.8442 Q=    0.4100 A=    0.0000 R=    0.0000 C=    0.0000
 XYZ=    2.1176    1.1922   -8.9287 Q=    0.4100 A=    0.0000 R=    0.0000 C=    0.0000
 XYZ=   -0.1085    7.5998    1.7947 Q=   -0.8200 A=    0.0000 R=    0.0000 C=    0.0000
 XYZ=   -0.3491    8.1832    2.5704 Q=    0.4100 A=    0.0000 R=    0.0000 C=    0.0000
 XYZ=   -0.8906    7.0243    1.5552 Q=    0.4100 A=    0.0000 R=    0.0000 C=    0.0000
 XYZ=    1.3214    7.3924    0.0611 Q=   -0.8200 A=    0.0000 R=    0.0000 C=    0.0000
 XYZ=    0.6564    7.4539    0.8055 Q=    0.4100 A=    0.0000 R=    0.0000 C=    0.0000
 XYZ=    1.0517    6.6627   -0.5673 Q=    0.4100 A=    0.0000 R=    0.0000 C=    0.0000
 XYZ=   -7.2191    0.6883    5.0966 Q=   -0.8200 A=    0.0000 R=    0.0000 C=    0.0000
 XYZ=   -6.2964    0.3033    5.1192 Q=    0.4100 A=    0.0000 R=    0.0000 C=    0.0000
 XYZ=   -7.7959    0.2108    5.7594 Q=    0.4100 A=    0.0000 R=    0.0000 C=    0.0000
 XYZ=    8.2240    2.8975   -0.7425 Q=   -0.8200 A=    0.0000 R=    0.0000 C=    0.0000
 XYZ=    7.8247    1.9812   -0.7117 Q=    0.4100 A=    0.0000 R=    0.0000 C=    0.0000
 XYZ=    8.6196    3.1188    0.1489 Q=    0.4100 A=    0.0000 R=    0.0000 C=    0.0000
 XYZ=   -6.8464    5.0863    0.0149 Q=   -0.8200 A=    0.0000 R=    0.0000 C=    0.0000
 XYZ=   -6.6489    6.0637   -0.0603 Q=    0.4100 A=    0.0000 R=    0.0000 C=    0.0000
 XYZ=   -7.5322    4.8314   -0.6669 Q=    0.4100 A=    0.0000 R=    0.0000 C=    0.0000
 XYZ=    3.2766    4.3548    5.5308 Q=   -0.8200 A=    0.0000 R=    0.0000 C=    0.0000
 XYZ=    3.9281    4.5645    6.2600 Q=    0.4100 A=    0.0000 R=    0.0000 C=    0.0000
 XYZ=    2.4103    4.8196    5.7140 Q=    0.4100 A=    0.0000 R=    0.0000 C=    0.0000
 XYZ=   -0.2870    5.5109   -5.4748 Q=   -0.8200 A=    0.0000 R=    0.0000 C=    0.0000
 XYZ=   -0.7804    5.7580   -6.3087 Q=    0.4100 A=    0.0000 R=    0.0000 C=    0.0000
 XYZ=    0.6453    5.2349   -5.7085 Q=    0.4100 A=    0.0000 R=    0.0000 C=    0.0000
 XYZ=    3.0899   -5.3958   -7.7980 Q=   -0.8200 A=    0.0000 R=    0.0000 C=    0.0000
 XYZ=    3.7578   -5.5895   -8.5166 Q=    0.4100 A=    0.0000 R=    0.0000 C=    0.0000
 XYZ=    3.4895   -4.7649   -7.1328 Q=    0.4100 A=    0.0000 R=    0.0000 C=    0.0000
 XYZ=    2.3371   -6.4708    3.3449 Q=   -0.8200 A=    0.0000 R=    0.0000 C=    0.0000
 XYZ=    1.7229   -6.3288    4.1211 Q=    0.4100 A=    0.0000 R=    0.0000 C=    0.0000
 XYZ=    2.1114   -7.3350    2.8950 Q=    0.4100 A=    0.0000 R=    0.0000 C=    0.0000
 XYZ=    0.4218   -4.4627    6.8959 Q=   -0.8200 A=    0.0000 R=    0.0000 C=    0.0000
 XYZ=    1.2985   -4.1690    6.5150 Q=    0.4100 A=    0.0000 R=    0.0000 C=    0.0000
 XYZ=   -0.2394   -3.7158    6.8251 Q=    0.4100 A=    0.0000 R=    0.0000 C=    0.0000
 XYZ=    4.6625    1.2976   -7.5406 Q=   -0.8200 A=    0.0000 R=    0.0000 C=    0.0000
 XYZ=    5.1009    1.9883   -6.9654 Q=    0.4100 A=    0.0000 R=    0.0000 C=    0.0000
 XYZ=    5.2088    0.4601   -7.5307 Q=    0.4100 A=    0.0000 R=    0.0000 C=    0.0000
 XYZ=    7.2268   -5.0265   -0.7889 Q=   -0.8200 A=    0.0000 R=    0.0000 C=    0.0000
 XYZ=    8.2127   -4.9477   -0.9369 Q=    0.4100 A=    0.0000 R=    0.0000 C=    0.0000
 XYZ=    6.8107   -5.5037   -1.5630 Q=    0.4100 A=    0.0000 R=    0.0000 C=    0.0000
 XYZ=   -7.1406    2.8612   -4.7814 Q=   -0.8200 A=    0.0000 R=    0.0000 C=    0.0000
 XYZ=   -7.1951    3.3910   -5.6278 Q=    0.4100 A=    0.0000 R=    0.0000 C=    0.0000
 XYZ=   -6.4517    2.1433   -4.8814 Q=    0.4100 A=    0.0000 R=    0.0000 C=    0.0000
 XYZ=    2.0466    4.8778   -6.2572 Q=   -0.8200 A=    0.0000 R=    0.0000 C=    0.0000
 XYZ=    2.8580    4.5548   -5.7699 Q=    0.4100 A=    0.0000 R=    0.0000 C=    0.0000
 XYZ=    2.3162    5.5573   -6.9396 Q=    0.4100 A=    0.0000 R=    0.0000 C=    0.0000
 XYZ=   -6.5609    4.1709    3.8566 Q=   -0.8200 A=    0.0000 R=    0.0000 C=    0.0000
 XYZ=   -7.1569    4.9090    3.5403 Q=    0.4100 A=    0.0000 R=    0.0000 C=    0.0000
 XYZ=   -6.9477    3.7612    4.6827 Q=    0.4100 A=    0.0000 R=    0.0000 C=    0.0000
 XYZ=    5.0772   -1.4307    6.4842 Q=   -0.8200 A=    0.0000 R=    0.0000 C=    0.0000
 XYZ=    5.7831   -1.3828    7.1909 Q=    0.4100 A=    0.0000 R=    0.0000 C=    0.0000
 XYZ=    5.3724   -2.0540    5.7600 Q=    0.4100 A=    0.0000 R=    0.0000 C=    0.0000
 XYZ=    7.8002   -5.0058    1.5086 Q=   -0.8200 A=    0.0000 R=    0.0000 C=    0.0000
 XYZ=    6.9194   -4.8181    1.9433 Q=    0.4100 A=    0.0000 R=    0.0000 C=    0.0000
 XYZ=    7.6975   -4.9620    0.5149 Q=    0.4100 A=    0.0000 R=    0.0000 C=    0.0000
 XYZ=    1.3191    3.5447   -7.9150 Q=   -0.8200 A=    0.0000 R=    0.0000 C=    0.0000
 XYZ=    1.6596    4.0494   -7.1217 Q=    0.4100 A=    0.0000 R=    0.0000 C=    0.0000
 XYZ=    1.6443    2.6000   -7.8737 Q=    0.4100 A=    0.0000 R=    0.0000 C=    0.0000
 XYZ=    7.9366    3.7363    2.6821 Q=   -0.8200 A=    0.0000 R=    0.0000 C=    0.0000
 XYZ=    8.1119    3.3407    3.5837 Q=    0.4100 A=    0.0000 R=    0.0000 C=    0.0000
 XYZ=    7.1449    3.2864    2.2689 Q=    0.4100 A=    0.0000 R=    0.0000 C=    0.0000
 XYZ=   -6.2043   -4.8234   -5.2714 Q=   -0.8200 A=    0.0000 R=    0.0000 C=    0.0000
 XYZ=   -6.3589   -4.4667   -6.1928 Q=    0.4100 A=    0.0000 R=    0.0000 C=    0.0000
 XYZ=   -5.8904   -4.0837   -4.6761 Q=    0.4100 A=    0.0000 R=    0.0000 C=    0.0000
 XYZ=   -2.4235   -1.9923    8.5189 Q=   -0.8200 A=    0.0000 R=    0.0000 C=    0.0000
 XYZ=   -1.9225   -2.2743    7.7007 Q=    0.4100 A=    0.0000 R=    0.0000 C=    0.0000
 XYZ=   -1.9755   -2.3681    9.3301 Q=    0.4100 A=    0.0000 R=    0.0000 C=    0.0000
 XYZ=   -1.9951   -6.4905    2.2229 Q=   -0.8200 A=    0.0000 R=    0.0000 C=    0.0000
 XYZ=   -1.4284   -6.8897    1.5020 Q=    0.4100 A=    0.0000 R=    0.0000 C=    0.0000
 XYZ=   -2.8860   -6.2382    1.8452 Q=    0.4100 A=    0.0000 R=    0.0000 C=    0.0000
 XYZ=   -2.1186    5.4954   -7.2513 Q=   -0.8200 A=    0.0000 R=    0.0000 C=    0.0000
 XYZ=   -2.3652    4.8627   -6.5172 Q=    0.4100 A=    0.0000 R=    0.0000 C=    0.0000
 XYZ=   -2.9106    5.6437   -7.8435 Q=    0.4100 A=    0.0000 R=    0.0000 C=    0.0000
 XYZ=    0.0834    4.4051    7.7935 Q=   -0.8200 A=    0.0000 R=    0.0000 C=    0.0000
 XYZ=    0.2356    4.7726    8.7110 Q=    0.4100 A=    0.0000 R=    0.0000 C=    0.0000
 XYZ=    0.2019    3.4122    7.8083 Q=    0.4100 A=    0.0000 R=    0.0000 C=    0.0000
 XYZ=   -0.7113   -7.9961    0.7406 Q=   -0.8200 A=    0.0000 R=    0.0000 C=    0.0000
 XYZ=    0.1417   -7.5979    0.4030 Q=    0.4100 A=    0.0000 R=    0.0000 C=    0.0000
 XYZ=   -0.9605   -8.7807    0.1729 Q=    0.4100 A=    0.0000 R=    0.0000 C=    0.0000
 XYZ=    6.5603    4.3564   -1.8855 Q=   -0.8200 A=    0.0000 R=    0.0000 C=    0.0000
 XYZ=    7.1447    3.8539   -1.2483 Q=    0.4100 A=    0.0000 R=    0.0000 C=    0.0000
 XYZ=    6.6470    5.3378   -1.7142 Q=    0.4100 A=    0.0000 R=    0.0000 C=    0.0000
 XYZ=   -8.7620   -1.6306    2.7452 Q=   -0.8200 A=    0.0000 R=    0.0000 C=    0.0000
 XYZ=   -8.1654   -2.1582    2.1405 Q=    0.4100 A=    0.0000 R=    0.0000 C=    0.0000
 XYZ=   -8.4023   -0.7025    2.8414 Q=    0.4100 A=    0.0000 R=    0.0000 C=    0.0000
 XYZ=    3.4836   -2.1824   -9.6684 Q=   -0.8200 A=    0.0000 R=    0.0000 C=    0.0000
 XYZ=    3.5417   -1.9107   -8.7078 Q=    0.4100 A=    0.0000 R=    0.0000 C=    0.0000
 XYZ=    4.2493   -2.7859   -9.8910 Q=    0.4100 A=    0.0000 R=    0.0000 C=    0.0000
 XYZ=    3.0143   -1.3187    7.6267 Q=   -0.8200 A=    0.0000 R=    0.0000 C=    0.0000
 XYZ=    3.2022   -1.4100    8.6046 Q=    0.4100 A=    0.0000 R=    0.0000 C=    0.0000
 XYZ=    3.8776   -1.2532    7.1261 Q=    0.4100 A=    0.0000 R=    0.0000 C=    0.0000
 XYZ=   -2.5255   -1.8003   -9.4912 Q=   -0.8200 A=    0.0000 R=    0.0000 C=    0.0000
 XYZ=   -2.4710   -2.5715  -10.1255 Q=    0.4100 A=    0.0000 R=    0.0000 C=    0.0000
 XYZ=   -2.5916   -2.1436   -8.5543 Q=    0.4100 A=    0.0000 R=    0.0000 C=    0.0000
 XYZ=    9.6063   -1.4576   -2.6553 Q=   -0.8200 A=    0.0000 R=    0.0000 C=    0.0000
 XYZ=    8.8854   -1.3908   -1.9653 Q=    0.4100 A=    0.0000 R=    0.0000 C=    0.0000
 XYZ=   10.4916   -1.5653   -2.2029 Q=    0.4100 A=    0.0000 R=    0.0000 C=    0.0000
 XYZ=   -6.4082   -6.1904   -2.0959 Q=   -0.8200 A=    0.0000 R=    0.0000 C=    0.0000
 XYZ=   -7.1472   -6.2309   -2.7684 Q=    0.4100 A=    0.0000 R=    0.0000 C=    0.0000
 XYZ=   -5.7735   -5.4577   -2.3418 Q=    0.4100 A=    0.0000 R=    0.0000 C=    0.0000
 XYZ=   -6.0161    1.6574   -7.8080 Q=   -0.8200 A=    0.0000 R=    0.0000 C=    0.0000
 XYZ=   -6.3483    0.8645   -8.3189 Q=    0.4100 A=    0.0000 R=    0.0000 C=    0.0000
 XYZ=   -5.7927    1.3817   -6.8731 Q=    0.4100 A=    0.0000 R=    0.0000 C=    0.0000
 XYZ=    5.7878    2.9078   -6.4306 Q=   -0.8200 A=    0.0000 R=    0.0000 C=    0.0000
 XYZ=    6.0262    3.8685   -6.5731 Q=    0.4100 A=    0.0000 R=    0.0000 C=    0.0000
 XYZ=    6.5712    2.4244   -6.0399 Q=    0.4100 A=    0.0000 R=    0.0000 C=    0.0000
 XYZ=   -9.2079    3.9633    2.1154 Q=   -0.8200 A=    0.0000 R=    0.0000 C=    0.0000
 XYZ=   -8.5016    3.2866    1.9075 Q=    0.4100 A=    0.0000 R=    0.0000 C=    0.0000
 XYZ=  -10.0024    3.5043    2.5133 Q=    0.4100 A=    0.0000 R=    0.0000 C=    0.0000
 XYZ=    3.5991    6.5612   -0.3199 Q=   -0.8200 A=    0.0000 R=    0.0000 C=    0.0000
 XYZ=    2.9009    7.2666   -0.1973 Q=    0.4100 A=    0.0000 R=    0.0000 C=    0.0000
 XYZ=    4.3025    6.6625    0.3837 Q=    0.4100 A=    0.0000 R=    0.0000 C=    0.0000
 XYZ=   -6.2760   -2.2441    6.5995 Q=   -0.8200 A=    0.0000 R=    0.0000 C=    0.0000
 XYZ=   -5.9288   -1.5674    5.9503 Q=    0.4100 A=    0.0000 R=    0.0000 C=    0.0000
 XYZ=   -5.5864   -2.4152    7.3033 Q=    0.4100 A=    0.0000 R=    0.0000 C=    0.0000
 XYZ=    7.5080    2.1795   -5.0631 Q=   -0.8200 A=    0.0000 R=    0.0000 C=    0.0000
 XYZ=    7.3549    2.9410   -4.4331 Q=    0.4100 A=    0.0000 R=    0.0000 C=    0.0000
 XYZ=    8.2161    1.5781   -4.6930 Q=    0.4100 A=    0.0000 R=    0.0000 C=    0.0000
 XYZ=   -8.4227    2.3332   -2.8372 Q=   -0.8200 A=    0.0000 R=    0.0000 C=    0.0000
 XYZ=   -7.9498    2.6624   -3.6545 Q=    0.4100 A=    0.0000 R=    0.0000 C=    0.0000
 XYZ=   -9.3446    2.0338   -3.0835 Q=    0.4100 A=    0.0000 R=    0.0000 C=    0.0000
 XYZ=   -2.6097    4.0170    8.0045 Q=   -0.8200 A=    0.0000 R=    0.0000 C=    0.0000
 XYZ=   -1.8306    4.3798    7.4933 Q=    0.4100 A=    0.0000 R=    0.0000 C=    0.0000
 XYZ=   -2.3908    3.1006    8.3397 Q=    0.4100 A=    0.0000 R=    0.0000 C=    0.0000
 XYZ=   -8.3678    4.4180   -1.6877 Q=   -0.8200 A=    0.0000 R=    0.0000 C=    0.0000
 XYZ=   -9.0897    5.0020   -2.0592 Q=    0.4100 A=    0.0000 R=    0.0000 C=    0.0000
 XYZ=   -8.3597    3.5460   -2.1772 Q=    0.4100 A=    0.0000 R=    0.0000 C=    0.0000
 XYZ=   -5.4447    5.8218    5.4670 Q=   -0.8200 A=    0.0000 R=    0.0000 C=    0.0000
 XYZ=   -6.2348    6.2644    5.8912 Q=    0.4100 A=    0.0000 R=    0.0000 C=    0.0000
 XYZ=   -5.7591    5.1582    4.7882 Q=    0.4100 A=    0.0000 R=    0.0000 C=    0.0000
 XYZ=    0.5190   -6.1731    4.9936 Q=   -0.8200 A=    0.0000 R=    0.0000 C=    0.0000
 XYZ=    0.0339   -7.0213    5.2064 Q=    0.4100 A=    0.0000 R=    0.0000 C=    0.0000
 XYZ=    0.6415   -5.6401    5.8308 Q=    0.4100 A=    0.0000 R=    0.0000 C=    0.0000
 XYZ=    6.2614    5.7697    2.8635 Q=   -0.8200 A=    0.0000 R=    0.0000 C=    0.0000
 XYZ=    5.3776    5.3262    3.0122 Q=    0.4100 A=    0.0000 R=    0.0000 C=    0.0000
 XYZ=    6.9739    5.0731    2.7792 Q=    0.4100 A=    0.0000 R=    0.0000 C=    0.0000
 XYZ=   -7.2710    2.9992    5.7886 Q=   -0.8200 A=    0.0000 R=    0.0000 C=    0.0000
 XYZ=   -7.1014    2.9789    6.7740 Q=    0.4100 A=    0.0000 R=    0.0000 C=    0.0000
 XYZ=   -7.1481    2.0816    5.4103 Q=    0.4100 A=    0.0000 R=    0.0000 C=    0.0000
 XYZ=  -10.3175   -0.0764   -0.2172 Q=   -0.8200 A=    0.0000 R=    0.0000 C=    0.0000
 XYZ=  -10.5842    0.8780   -0.3521 Q=    0.4100 A=    0.0000 R=    0.0000 C=    0.0000
 XYZ=   -9.3642   -0.1983   -0.4937 Q=    0.4100 A=    0.0000 R=    0.0000 C=    0.0000
 XYZ=   -4.9346   -5.9384    3.8343 Q=   -0.8200 A=    0.0000 R=    0.0000 C=    0.0000
 XYZ=   -4.2687   -5.3647    4.3113 Q=    0.4100 A=    0.0000 R=    0.0000 C=    0.0000
 XYZ=   -4.5210   -6.3071    3.0018 Q=    0.4100 A=    0.0000 R=    0.0000 C=    0.0000
 XYZ=    9.4620   -2.0337    0.5260 Q=   -0.8200 A=    0.0000 R=    0.0000 C=    0.0000
 XYZ=    9.5762   -2.7849    1.1762 Q=    0.4100 A=    0.0000 R=    0.0000 C=    0.0000
 XYZ=    9.2843   -1.1853    1.0248 Q=    0.4100 A=    0.0000 R=    0.0000 C=    0.0000
 XYZ=   -6.5470   -4.4319    3.4514 Q=   -0.8200 A=    0.0000 R=    0.0000 C=    0.0000
 XYZ=   -7.0448   -4.1430    4.2692 Q=    0.4100 A=    0.0000 R=    0.0000 C=    0.0000
 XYZ=   -5.8946   -5.1497    3.6946 Q=    0.4100 A=    0.0000 R=    0.0000 C=    0.0000
 XYZ=    5.4736   -8.0008   -0.9395 Q=   -0.8200 A=    0.0000 R=    0.0000 C=    0.0000
 XYZ=    6.2205   -8.1821   -0.2999 Q=    0.4100 A=    0.0000 R=    0.0000 C=    0.0000
 XYZ=    5.8096   -7.4353   -1.6927 Q=    0.4100 A=    0.0000 R=    0.0000 C=    0.0000
 XYZ=   -4.2232   -6.5739    1.5797 Q=   -0.8200 A=    0.0000 R=    0.0000 C=    0.0000
 XYZ=   -3.9956   -7.5472    1.6101 Q=    0.4100 A=    0.0000 R=    0.0000 C=    0.0000
 XYZ=   -5.0103   -6.4342    0.9789 Q=    0.4100 A=    0.0000 R=    0.0000 C=    0.0000
 XYZ=    2.8688   -7.5256   -6.8043 Q=   -0.8200 A=    0.0000 R=    0.0000 C=    0.0000
 XYZ=    3.7267   -8.0213   -6.6692 Q=    0.4100 A=    0.0000 R=    0.0000 C=    0.0000
 XYZ=    3.0667   -6.5681   -7.0141 Q=    0.4100 A=    0.0000 R=    0.0000 C=    0.0000
 XYZ=    7.7766    4.2949   -3.7749 Q=   -0.8200 A=    0.0000 R=    0.0000 C=    0.0000
 XYZ=    7.2526    4.2665   -2.9236 Q=    0.4100 A=    0.0000 R=    0.0000 C=    0.0000
 XYZ=    8.7535    4.3307   -3.5638 Q=    0.4100 A=    0.0000 R=    0.0000 C=    0.0000
 XYZ=   -3.9041    2.8439   -8.2859 Q=   -0.8200 A=    0.0000 R=    0.0000 C=    0.0000
 XYZ=   -4.8108    2.4222   -8.2760 Q=    0.4100 A=    0.0000 R=    0.0000 C=    0.0000
 XYZ=   -3.9950    3.8324   -8.1649 Q=    0.4100 A=    0.0000 R=    0.0000 C=    0.0000
 XYZ=    6.6062   -2.6451   -8.4934 Q=   -0.8200 A=    0.0000 R=    0.0000 C=    0.0000
 XYZ=    6.3383   -1.8085   -8.0156 Q=    0.4100 A=    0.0000 R=    0.0000 C=    0.0000
 XYZ=    6.4436   -3.4341   -7.9008 Q=    0.4100 A=    0.0000 R=    0.0000 C=    0.0000
 XYZ=    9.2161    0.7601   -3.7568 Q=   -0.8200 A=    0.0000 R=    0.0000 C=    0.0000
 XYZ=    9.6730    1.5223   -3.2982 Q=    0.4100 A=    0.0000 R=    0.0000 C=    0.0000
 XYZ=    9.2804   -0.0588   -3.1864 Q=    0.4100 A=    0.0000 R=    0.0000 C=    0.0000
 XYZ=   -0.0034    7.8218    5.3880 Q=   -0.8200 A=    0.0000 R=    0.0000 C=    0.0000
 XYZ=    0.6654    7.0802    5.4405 Q=    0.4100 A=    0.0000 R=    0.0000 C=    0.0000
 XYZ=   -0.9198    7.4562    5.5508 Q=    0.4100 A=    0.0000 R=    0.0000 C=    0.0000
 XYZ=   -4.6417    8.5585   -1.3068 Q=   -0.8200 A=    0.0000 R=    0.0000 C=    0.0000
 XYZ=   -4.9308    9.2426   -0.6370 Q=    0.4100 A=    0.0000 R=    0.0000 C=    0.0000
 XYZ=   -3.7473    8.1946   -1.0466 Q=    0.4100 A=    0.0000 R=    0.0000 C=    0.0000
 XYZ=   -7.6242   -4.9530    1.5552 Q=   -0.8200 A=    0.0000 R=    0.0000 C=    0.0000
 XYZ=   -7.0185   -5.6263    1.1312 Q=    0.4100 A=    0.0000 R=    0.0000 C=    0.0000
 XYZ=   -7.2292   -4.6486    2.4220 Q=    0.4100 A=    0.0000 R=    0.0000 C=    0.0000
 XYZ=    4.3724    1.8202    7.7152 Q=   -0.8200 A=    0.0000 R=    0.0000 C=    0.0000
 XYZ=    5.2563    2.0738    7.3222 Q=    0.4100 A=    0.0000 R=    0.0000 C=    0.0000
 XYZ=    4.0797    2.5261    8.3603 Q=    0.4100 A=    0.0000 R=    0.0000 C=    0.0000
 XYZ=   -0.4712    4.3751   -8.9906 Q=   -0.8200 A=    0.0000 R=    0.0000 C=    0.0000
 XYZ=   -1.1843    4.7159   -8.3779 Q=    0.4100 A=    0.0000 R=    0.0000 C=    0.0000
 XYZ=    0.3171    4.0780   -8.4518 Q=    0.4100 A=    0.0000 R=    0.0000 C=    0.0000
 XYZ=    6.8854   -7.2179    2.3295 Q=   -0.8200 A=    0.0000 R=    0.0000 C=    0.0000
 XYZ=    7.5114   -6.4929    2.0422 Q=    0.4100 A=    0.0000 R=    0.0000 C=    0.0000
 XYZ=    5.9693   -6.8370    2.4546 Q=    0.4100 A=    0.0000 R=    0.0000 C=    0.0000
 XYZ=    8.3377    2.8871    4.6884 Q=   -0.8200 A=    0.0000 R=    0.0000 C=    0.0000
 XYZ=    7.4904    2.3616    4.6115 Q=    0.4100 A=    0.0000 R=    0.0000 C=    0.0000
 XYZ=    8.9711    2.4108    5.2982 Q=    0.4100 A=    0.0000 R=    0.0000 C=    0.0000
 XYZ=   -2.0697    6.9052    5.8984 Q=   -0.8200 A=    0.0000 R=    0.0000 C=    0.0000
 XYZ=   -2.9371    7.0724    5.4296 Q=    0.4100 A=    0.0000 R=    0.0000 C=    0.0000
 XYZ=   -2.1810    6.1518    6.5465 Q=    0.4100 A=    0.0000 R=    0.0000 C=    0.0000
 XYZ=   -2.7550    8.1437    2.8128 Q=   -0.8200 A=    0.0000 R=    0.0000 C=    0.0000
 XYZ=   -3.2434    7.8754    3.6431 Q=    0.4100 A=    0.0000 R=    0.0000 C=    0.0000
 XYZ=   -3.3012    8.8104    2.3056 Q=    0.4100 A=    0.0000 R=    0.0000 C=    0.0000
 XYZ=   -1.8570    1.9702    9.0480 Q=   -0.8200 A=    0.0000 R=    0.0000 C=    0.0000
 XYZ=   -2.4791    1.1960    9.1647 Q=    0.4100 A=    0.0000 R=    0.0000 C=    0.0000
 XYZ=   -1.6475    2.3669    9.9417 Q=    0.4100 A=    0.0000 R=    0.0000 C=    0.0000
 XYZ=   -3.1847    0.0917    9.2506 Q=   -0.8200 A=    0.0000 R=    0.0000 C=    0.0000
 XYZ=   -2.7317   -0.7368    8.9215 Q=    0.4100 A=    0.0000 R=    0.0000 C=    0.0000
 XYZ=   -3.5889   -0.0836   10.1484 Q=    0.4100 A=    0.0000 R=    0.0000 C=    0.0000
 XYZ=    9.0546   -3.8358   -5.7612 Q=   -0.8200 A=    0.0000 R=    0.0000 C=    0.0000
 XYZ=    8.6098   -3.1830   -5.1479 Q=    0.4100 A=    0.0000 R=    0.0000 C=    0.0000
 XYZ=    9.0261   -3.4859   -6.6976 Q=    0.4100 A=    0.0000 R=    0.0000 C=    0.0000
 XYZ=    6.0064   -4.7135   -7.4555 Q=   -0.8200 A=    0.0000 R=    0.0000 C=    0.0000
 XYZ=    6.7919   -5.1040   -6.9753 Q=    0.4100 A=    0.0000 R=    0.0000 C=    0.0000
 XYZ=    5.7258   -5.3296   -8.1916 Q=    0.4100 A=    0.0000 R=    0.0000 C=    0.0000
 XYZ=   -4.4495    8.1495   -3.7771 Q=   -0.8200 A=    0.0000 R=    0.0000 C=    0.0000
 XYZ=   -4.3935    8.4051   -2.8119 Q=    0.4100 A=    0.0000 R=    0.0000 C=    0.0000
 XYZ=   -4.3642    7.1570   -3.8646 Q=    0.4100 A=    0.0000 R=    0.0000 C=    0.0000
 XYZ=    6.3547    2.4135    6.8160 Q=   -0.8200 A=    0.0000 R=    0.0000 C=    0.0000
 XYZ=    6.5216    2.2067    5.8519 Q=    0.4100 A=    0.0000 R=    0.0000 C=    0.0000
 XYZ=    7.2266    2.5764    7.2777 Q=    0.4100 A=    0.0000 R=    0.0000 C=    0.0000
 XYZ=   -0.0758   -0.9692  -10.1328 Q=   -0.8200 A=    0.0000 R=    0.0000 C=    0.0000
 XYZ=    0.5857   -1.7182  -10.1700 Q=    0.4100 A=    0.0000 R=    0.0000 C=    0.0000
 XYZ=   -0.9685   -1.3262   -9.8575 Q=    0.4100 A=    0.0000 R=    0.0000 C=    0.0000
 XYZ=   -4.3967   -2.8843    7.8651 Q=   -0.8200 A=    0.0000 R=    0.0000 C=    0.0000
 XYZ=   -3.6546   -2.3087    8.2086 Q=    0.4100 A=    0.0000 R=    0.0000 C=    0.0000
 XYZ=   -4.5060   -3.6788    8.4625 Q=    0.4100 A=    0.0000 R=    0.0000 C=    0.0000
 XYZ=    0.7563   -5.9606   -8.1990 Q=   -0.8200 A=    0.0000 R=    0.0000 C=    0.0000
 XYZ=    0.6485   -6.9473   -8.0772 Q=    0.4100 A=    0.0000 R=    0.0000 C=    0.0000
 XYZ=    1.7153   -5.7512   -8.3901 Q=    0.4100 A=    0.0000 R=    0.0000 C=    0.0000
 XYZ=   -6.6045    7.3615   -0.4158 Q=   -0.8200 A=    0.0000 R=    0.0000 C=    0.0000
 XYZ=   -5.8365    7.7051   -0.9562 Q=    0.4100 A=    0.0000 R=    0.0000 C=    0.0000
 XYZ=   -7.0445    8.1231    0.0600 Q=    0.4100 A=    0.0000 R=    0.0000 C=    0.0000
 XYZ=    1.5868    2.7455   10.0365 Q=   -0.8200 A=    0.0000 R=    0.0000 C=    0.0000
 XYZ=    2.5285    3.0043    9.8211 Q=    0.4100 A=    0.0000 R=    0.0000 C=    0.0000
 XYZ=    1.2093    2.2054    9.2843 Q=    0.4100 A=    0.0000 R=    0.0000 C=    0.0000
 XYZ=    5.8433    5.3485   -4.9730 Q=   -0.8200 A=    0.0000 R=    0.0000 C=    0.0000
 XYZ=    6.6213    5.2190   -4.3581 Q=    0.4100 A=    0.0000 R=    0.0000 C=    0.0000
 XYZ=    6.1387    5.2089   -5.9181 Q=    0.4100 A=    0.0000 R=    0.0000 C=    0.0000
 XYZ=    9.9230    2.3928   -2.2752 Q=   -0.8200 A=    0.0000 R=    0.0000 C=    0.0000
 XYZ=    9.1215    2.6711   -1.7460 Q=    0.4100 A=    0.0000 R=    0.0000 C=    0.0000
 XYZ=   10.5226    1.8334   -1.7027 Q=    0.4100 A=    0.0000 R=    0.0000 C=    0.0000
 XYZ=   -6.1129   -6.4150    0.2119 Q=   -0.8200 A=    0.0000 R=    0.0000 C=    0.0000
 XYZ=   -6.3039   -6.2304   -0.7523 Q=    0.4100 A=    0.0000 R=    0.0000 C=    0.0000
 XYZ=   -6.0712   -7.4031    0.3601 Q=    0.4100 A=    0.0000 R=    0.0000 C=    0.0000
 XYZ=    1.5048    0.7442  -10.1527 Q=   -0.8200 A=    0.0000 R=    0.0000 C=    0.0000
 XYZ=    1.0108    1.6050  -10.2750 Q=    0.4100 A=    0.0000 R=    0.0000 C=    0.0000
 XYZ=    0.8504    0.0018  -10.0089 Q=    0.4100 A=    0.0000 R=    0.0000 C=    0.0000
 XYZ=   -4.0149    7.4937    4.6335 Q=   -0.8200 A=    0.0000 R=    0.0000 C=    0.0000
 XYZ=   -4.6057    6.8179    5.0744 Q=    0.4100 A=    0.0000 R=    0.0000 C=    0.0000
 XYZ=   -4.3488    8.4135    4.8401 Q=    0.4100 A=    0.0000 R=    0.0000 C=    0.0000
 XYZ=   10.5819    1.4946    1.5044 Q=   -0.8200 A=    0.0000 R=    0.0000 C=    0.0000
 XYZ=    9.8068    0.8629    1.5165 Q=    0.4100 A=    0.0000 R=    0.0000 C=    0.0000
 XYZ=   10.2567    2.4171    1.2966 Q=    0.4100 A=    0.0000 R=    0.0000 C=    0.0000
 XYZ=   -0.3637   -4.5498    9.0310 Q=   -0.8200 A=    0.0000 R=    0.0000 C=    0.0000
 XYZ=   -0.1312   -4.6358    8.0622 Q=    0.4100 A=    0.0000 R=    0.0000 C=    0.0000
 XYZ=    0.4463   -4.2656    9.5442 Q=    0.4100 A=    0.0000 R=    0.0000 C=    0.0000
 XYZ=  -10.1640    3.7153   -0.1164 Q=   -0.8200 A=    0.0000 R=    0.0000 C=    0.0000
 XYZ=   -9.3927    4.1614   -0.5705 Q=    0.4100 A=    0.0000 R=    0.0000 C=    0.0000
 XYZ=  -10.0244    3.7344    0.8736 Q=    0.4100 A=    0.0000 R=    0.0000 C=    0.0000
 XYZ=   -0.5567    9.4534   -0.6784 Q=   -0.8200 A=    0.0000 R=    0.0000 C=    0.0000
 XYZ=   -0.4105    9.4758   -1.6674 Q=    0.4100 A=    0.0000 R=    0.0000 C=    0.0000
 XYZ=    0.0937    8.8198   -0.2596 Q=    0.4100 A=    0.0000 R=    0.0000 C=    0.0000
 XYZ=    1.2965   -2.8772  -10.4655 Q=   -0.8200 A=    0.0000 R=    0.0000 C=    0.0000
 XYZ=    2.1661   -2.6889  -10.0090 Q=    0.4100 A=    0.0000 R=    0.0000 C=    0.0000
 XYZ=    1.4170   -2.8031  -11.4555 Q=    0.4100 A=    0.0000 R=    0.0000 C=    0.0000
 XYZ=   -5.1867   -6.8907   -5.6431 Q=   -0.8200 A=    0.0000 R=    0.0000 C=    0.0000
 XYZ=   -5.6330   -6.0160   -5.4539 Q=    0.4100 A=    0.0000 R=    0.0000 C=    0.0000
 XYZ=   -5.1227   -7.4218   -4.7982 Q=    0.4100 A=    0.0000 R=    0.0000 C=    0.0000
 XYZ=  -10.5744    0.7283    3.2928 Q=   -0.8200 A=    0.0000 R=    0.0000 C=    0.0000
 XYZ=   -9.6026    0.5841    3.4794 Q=    0.4100 A=    0.0000 R=    0.0000 C=    0.0000
 XYZ=  -10.8617    0.1325    2.5428 Q=    0.4100 A=    0.0000 R=    0.0000 C=    0.0000
 XYZ=   -0.0497   -4.6038   -9.9039 Q=   -0.8200 A=    0.0000 R=    0.0000 C=    0.0000
 XYZ=    0.6170   -3.8730  -10.0510 Q=    0.4100 A=    0.0000 R=    0.0000 C=    0.0000
 XYZ=    0.1764   -5.0970   -9.0639 Q=    0.4100 A=    0.0000 R=    0.0000 C=    0.0000
 XYZ=    6.4970    6.5264   -1.3214 Q=   -0.8200 A=    0.0000 R=    0.0000 C=    0.0000
 XYZ=    5.6023    6.7814   -1.6882 Q=    0.4100 A=    0.0000 R=    0.0000 C=    0.0000
 XYZ=    6.5977    6.8997   -0.3991 Q=    0.4100 A=    0.0000 R=    0.0000 C=    0.0000
 XYZ=   -4.6463    5.5291    7.6119 Q=   -0.8200 A=    0.0000 R=    0.0000 C=    0.0000
 XYZ=   -4.8915    5.7342    6.6644 Q=    0.4100 A=    0.0000 R=    0.0000 C=    0.0000
 XYZ=   -4.0147    4.7540    7.6324 Q=    0.4100 A=    0.0000 R=    0.0000 C=    0.0000
 XYZ=   -1.5276   -8.6664    3.3807 Q=   -0.8200 A=    0.0000 R=    0.0000 C=    0.0000
 XYZ=   -0.9143   -9.2857    2.8903 Q=    0.4100 A=    0.0000 R=    0.0000 C=    0.0000
 XYZ=   -1.7082   -7.8606    2.8168 Q=    0.4100 A=    0.0000 R=    0.0000 C=    0.0000
 XYZ=    7.5013   -6.6672   -4.2850 Q=   -0.8200 A=    0.0000 R=    0.0000 C=    0.0000
 XYZ=    7.4056   -6.4218   -5.2497 Q=    0.4100 A=    0.0000 R=    0.0000 C=    0.0000
 XYZ=    8.4236   -7.0169   -4.1200 Q=    0.4100 A=    0.0000 R=    0.0000 C=    0.0000
 XYZ=   -8.3804    5.7526    3.5822 Q=   -0.8200 A=    0.0000 R=    0.0000 C=    0.0000
 XYZ=   -8.8217    5.5556    4.4577 Q=    0.4100 A=    0.0000 R=    0.0000 C=    0.0000
 XYZ=   -8.6721    5.0791    2.9030 Q=    0.4100 A=    0.0000 R=    0.0000 C=    0.0000
 XYZ=   -7.0954    3.5796   -7.0688 Q=   -0.8200 A=    0.0000 R=    0.0000 C=    0.0000
 XYZ=   -6.8407    4.3076   -7.7053 Q=    0.4100 A=    0.0000 R=    0.0000 C=    0.0000
 XYZ=   -6.6559    2.7253   -7.3464 Q=    0.4100 A=    0.0000 R=    0.0000 C=    0.0000
 XYZ=   -0.5709    8.9598    3.4618 Q=   -0.8200 A=    0.0000 R=    0.0000 C=    0.0000
 XYZ=   -1.5503    8.8122    3.3239 Q=    0.4100 A=    0.0000 R=    0.0000 C=    0.0000
 XYZ=   -0.2869    8.5320    4.3199 Q=    0.4100 A=    0.0000 R=    0.0000 C=    0.0000
 XYZ=    9.9699   -3.8970    2.0589 Q=   -0.8200 A=    0.0000 R=    0.0000 C=    0.0000
 XYZ=    9.1329   -4.4302    2.1823 Q=    0.4100 A=    0.0000 R=    0.0000 C=    0.0000
 XYZ=   10.5791   -4.3747    1.4259 Q=    0.4100 A=    0.0000 R=    0.0000 C=    0.0000
 XYZ=   -7.5887   -3.7074    5.3942 Q=   -0.8200 A=    0.0000 R=    0.0000 C=    0.0000
 XYZ=   -8.4456   -3.1987    5.3110 Q=    0.4100 A=    0.0000 R=    0.0000 C=    0.0000
 XYZ=   -6.9686   -3.2178    6.0072 Q=    0.4100 A=    0.0000 R=    0.0000 C=    0.0000
 XYZ=  -10.8271   -0.9891    1.7504 Q=   -0.8200 A=    0.0000 R=    0.0000 C=    0.0000
 XYZ=  -10.5245   -0.5694    0.8947 Q=    0.4100 A=    0.0000 R=    0.0000 C=    0.0000
 XYZ=  -10.0297   -1.2792    2.2796 Q=    0.4100 A=    0.0000 R=    0.0000 C=    0.0000
 XYZ=   -9.4211   -2.5267    4.8687 Q=   -0.8200 A=    0.0000 R=    0.0000 C=    0.0000
 XYZ=   -9.1334   -2.0793    4.0219 Q=    0.4100 A=    0.0000 R=    0.0000 C=    0.0000
 XYZ=  -10.1836   -3.1445    4.6768 Q=    0.4100 A=    0.0000 R=    0.0000 C=    0.0000
 XYZ=    9.6402    3.6825    1.1036 Q=   -0.8200 A=    0.0000 R=    0.0000 C=    0.0000
 XYZ=    8.9863    3.8124    1.8489 Q=    0.4100 A=    0.0000 R=    0.0000 C=    0.0000
 XYZ=   10.3911    4.3357    1.2014 Q=    0.4100 A=    0.0000 R=    0.0000 C=    0.0000
 XYZ=   -6.4748   -3.7164   -7.3887 Q=   -0.8200 A=    0.0000 R=    0.0000 C=    0.0000
 XYZ=   -6.1736   -4.1586   -8.2336 Q=    0.4100 A=    0.0000 R=    0.0000 C=    0.0000
 XYZ=   -7.1181   -2.9827   -7.6076 Q=    0.4100 A=    0.0000 R=    0.0000 C=    0.0000
 XYZ=   -3.6208    2.4205  -10.6411 Q=   -0.8200 A=    0.0000 R=    0.0000 C=    0.0000
 XYZ=   -3.6110    2.4800   -9.6430 Q=    0.4100 A=    0.0000 R=    0.0000 C=    0.0000
 XYZ=   -3.4254    1.4805  -10.9209 Q=    0.4100 A=    0.0000 R=    0.0000 C=    0.0000
 XYZ=   -0.4670    9.3476   -3.0655 Q=   -0.8200 A=    0.0000 R=    0.0000 C=    0.0000
 XYZ=   -1.1373    9.9212   -3.5364 Q=    0.4100 A=    0.0000 R=    0.0000 C=    0.0000
 XYZ=   -0.3977    8.4653   -3.5310 Q=    0.4100 A=    0.0000 R=    0.0000 C=    0.0000
 XYZ=   -3.2278   -0.0483  -11.0220 Q=   -0.8200 A=    0.0000 R=    0.0000 C=    0.0000
 XYZ=   -2.8341   -0.6556  -10.3319 Q=    0.4100 A=    0.0000 R=    0.0000 C=    0.0000
 XYZ=   -3.9530   -0.5294  -11.5146 Q=    0.4100 A=    0.0000 R=    0.0000 C=    0.0000
 XYZ=   -1.7416   -6.3696   -8.4211 Q=   -0.8200 A=    0.0000 R=    0.0000 C=    0.0000
 XYZ=   -0.7456   -6.2873   -8.3858 Q=    0.4100 A=    0.0000 R=    0.0000 C=    0.0000
 XYZ=   -2.0658   -6.8465   -7.6041 Q=    0.4100 A=    0.0000 R=    0.0000 C=    0.0000
 XYZ=   -3.1693   -7.4596   -6.8416 Q=   -0.8200 A=    0.0000 R=    0.0000 C=    0.0000
 XYZ=   -3.5753   -7.9796   -7.5932 Q=    0.4100 A=    0.0000 R=    0.0000 C=    0.0000
 XYZ=   -3.8957   -7.0778   -6.2701 Q=    0.4100 A=    0.0000 R=    0.0000 C=    0.0000
 XYZ=   -7.6967   -6.1438   -3.9094 Q=   -0.8200 A=    0.0000 R=    0.0000 C=    0.0000
 XYZ=   -7.1341   -5.6087   -4.5396 Q=    0.4100 A=    0.0000 R=    0.0000 C=    0.0000
 XYZ=   -8.4002   -6.6335   -4.4245 Q=    0.4100 A=    0.0000 R=    0.0000 C=    0.0000
 XYZ=    5.1011    4.8238    7.0318 Q=   -0.8200 A=    0.0000 R=    0.0000 C=    0.0000
 XYZ=    5.7333    5.5635    6.8013 Q=    0.4100 A=    0.0000 R=    0.0000 C=    0.0000
 XYZ=    5.5860    3.9497    7.0025 Q=    0.4100 A=    0.0000 R=    0.0000 C=    0.0000
 XYZ=    6.0020   -0.0335    8.5257 Q=   -0.8200 A=    0.0000 R=    0.0000 C=    0.0000
 XYZ=    5.4506    0.7243    8.1767 Q=    0.4100 A=    0.0000 R=    0.0000 C=    0.0000
 XYZ=    6.7877    0.3292    9.0269 Q=    0.4100 A=    0.0000 R=    0.0000 C=    0.0000
 XYZ=   11.3122   -1.5839   -0.9265 Q=   -0.8200 A=    0.0000 R=    0.0000 C=    0.0000
 XYZ=   12.0980   -1.5508   -0.3088 Q=    0.4100 A=    0.0000 R=    0.0000 C=    0.0000
 XYZ=   10.4876   -1.8035   -0.4053 Q=    0.4100 A=    0.0000 R=    0.0000 C=    0.0000
 XYZ=    0.6841   -8.2017   -7.3906 Q=   -0.8200 A=    0.0000 R=    0.0000 C=    0.0000
 XYZ=    0.2279   -8.4577   -6.5383 Q=    0.4100 A=    0.0000 R=    0.0000 C=    0.0000
 XYZ=    1.6532   -8.0318   -7.2119 Q=    0.4100 A=    0.0000 R=    0.0000 C=    0.0000
 XYZ=    6.7779    7.2480    0.8253 Q=   -0.8200 A=    0.0000 R=    0.0000 C=    0.0000
 XYZ=    6.9097    8.2008    1.0990 Q=    0.4100 A=    0.0000 R=    0.0000 C=    0.0000
 XYZ=    6.6236    6.6861    1.6380 Q=    0.4100 A=    0.0000 R=    0.0000 C=    0.0000
 XYZ=    7.8222   -5.7065   -6.3871 Q=   -0.8200 A=    0.0000 R=    0.0000 C=    0.0000
 XYZ=    8.4310   -5.0512   -5.9400 Q=    0.4100 A=    0.0000 R=    0.0000 C=    0.0000
 XYZ=    8.3314   -6.2139   -7.0822 Q=    0.4100 A=    0.0000 R=    0.0000 C=    0.0000
 XYZ=    0.5850    2.8380  -10.7271 Q=   -0.8200 A=    0.0000 R=    0.0000 C=    0.0000
 XYZ=    0.1397    3.3664  -10.0042 Q=    0.4100 A=    0.0000 R=    0.0000 C=    0.0000
 XYZ=    1.4109    3.3148  -11.0279 Q=    0.4100 A=    0.0000 R=    0.0000 C=    0.0000
 XYZ=    2.7879   -0.7454  -11.4366 Q=   -0.8200 A=    0.0000 R=    0.0000 C=    0.0000
 XYZ=    2.3685    0.0694  -11.0364 Q=    0.4100 A=    0.0000 R=    0.0000 C=    0.0000
 XYZ=    3.1325   -1.3356  -10.7066 Q=    0.4100 A=    0.0000 R=    0.0000 C=    0.0000
 XYZ=  -11.1179    1.8386   -1.3285 Q=   -0.8200 A=    0.0000 R=    0.0000 C=    0.0000
 XYZ=  -12.1006    1.8376   -1.1434 Q=    0.4100 A=    0.0000 R=    0.0000 C=    0.0000
 XYZ=  -10.6869    2.5955   -0.8374 Q=    0.4100 A=    0.0000 R=    0.0000 C=    0.0000
 XYZ=   -7.3623    8.1078    2.9546 Q=   -0.8200 A=    0.0000 R=    0.0000 C=    0.0000
 XYZ=   -7.6395    7.1470    2.9391 Q=    0.4100 A=    0.0000 R=    0.0000 C=    0.0000
 XYZ=   -7.2737    8.4139    3.9025 Q=    0.4100 A=    0.0000 R=    0.0000 C=    0.0000
 XYZ=   -2.8385    8.9147   -5.2345 Q=   -0.8200 A=    0.0000 R=    0.0000 C=    0.0000
 XYZ=   -3.5492    8.6956   -4.5659 Q=    0.4100 A=    0.0000 R=    0.0000 C=    0.0000
 XYZ=   -2.2722    8.1065   -5.3960 Q=    0.4100 A=    0.0000 R=    0.0000 C=    0.0000
 XYZ=    5.3874   -3.4113  -10.3615 Q=   -0.8200 A=    0.0000 R=    0.0000 C=    0.0000
 XYZ=    5.9633   -3.5198  -11.1718 Q=    0.4100 A=    0.0000 R=    0.0000 C=    0.0000
 XYZ=    5.9627   -3.2142   -9.5676 Q=    0.4100 A=    0.0000 R=    0.0000 C=    0.0000
 XYZ=    7.3871   -8.3960    0.3302 Q=   -0.8200 A=    0.0000 R=    0.0000 C=    0.0000
 XYZ=    7.1777   -7.8637    1.1505 Q=    0.4100 A=    0.0000 R=    0.0000 C=    0.0000
 XYZ=    7.8746   -9.2297    0.5894 Q=    0.4100 A=    0.0000 R=    0.0000 C=    0.0000
 XYZ=   -8.5293   -0.9761    6.4596 Q=   -0.8200 A=    0.0000 R=    0.0000 C=    0.0000
 XYZ=   -9.2175   -1.4421    5.9035 Q=    0.4100 A=    0.0000 R=    0.0000 C=    0.0000
 XYZ=   -7.8441   -1.6373    6.7652 Q=    0.4100 A=    0.0000 R=    0.0000 C=    0.0000
 XYZ=   -3.1058    5.0901   10.0532 Q=   -0.8200 A=    0.0000 R=    0.0000 C=    0.0000
 XYZ=   -3.4793    5.9877    9.8190 Q=    0.4100 A=    0.0000 R=    0.0000 C=    0.0000
 XYZ=   -2.8644    4.6005    9.2153 Q=    0.4100 A=    0.0000 R=    0.0000 C=    0.0000
 XYZ=   -0.9892   -7.8457    5.5421 Q=   -0.8200 A=    0.0000 R=    0.0000 C=    0.0000
 XYZ=   -1.7671   -7.5048    6.0701 Q=    0.4100 A=    0.0000 R=    0.0000 C=    0.0000
 XYZ=   -1.3140   -8.2180    4.6726 Q=    0.4100 A=    0.0000 R=    0.0000 C=    0.0000
 XYZ=    9.7947   -5.3657   -1.6438 Q=   -0.8200 A=    0.0000 R=    0.0000 C=    0.0000
 XYZ=    9.8192   -5.4387   -2.6409 Q=    0.4100 A=    0.0000 R=    0.0000 C=    0.0000
 XYZ=    9.5262   -6.2457   -1.2517 Q=    0.4100 A=    0.0000 R=    0.0000 C=    0.0000
 XYZ=   -6.6268   -0.3395   -9.3488 Q=   -0.8200 A=    0.0000 R=    0.0000 C=    0.0000
 XYZ=   -7.0415   -1.1534   -8.9418 Q=    0.4100 A=    0.0000 R=    0.0000 C=    0.0000
 XYZ=   -5.7087   -0.5619   -9.6770 Q=    0.4100 A=    0.0000 R=    0.0000 C=    0.0000
 XYZ=   -6.1054   -8.6823   -2.7739 Q=   -0.8200 A=    0.0000 R=    0.0000 C=    0.0000
 XYZ=   -6.1652   -7.7359   -2.4567 Q=    0.4100 A=    0.0000 R=    0.0000 C=    0.0000
 XYZ=   -6.9806   -8.9559   -3.1730 Q=    0.4100 A=    0.0000 R=    0.0000 C=    0.0000
 XYZ=    9.0939   -2.7615   -7.8333 Q=   -0.8200 A=    0.0000 R=    0.0000 C=    0.0000
 XYZ=    8.1775   -2.7150   -8.2308 Q=    0.4100 A=    0.0000 R=    0.0000 C=    0.0000
 XYZ=    9.4743   -1.8393   -7.7641 Q=    0.4100 A=    0.0000 R=    0.0000 C=    0.0000
 XYZ=   -2.3297   -3.7073  -10.8167 Q=   -0.8200 A=    0.0000 R=    0.0000 C=    0.0000
 XYZ=   -1.5559   -4.0732  -10.2997 Q=    0.4100 A=    0.0000 R=    0.0000 C=    0.0000
 XYZ=   -2.0256   -3.4492  -11.7338 Q=    0.4100 A=    0.0000 R=    0.0000 C=    0.0000
 XYZ=    4.8623   -5.5907   -9.3040 Q=   -0.8200 A=    0.0000 R=    0.0000 C=    0.0000
 XYZ=    5.2238   -6.3653   -9.8230 Q=    0.4100 A=    0.0000 R=    0.0000 C=    0.0000
 XYZ=    5.1071   -4.7375   -9.7646 Q=    0.4100 A=    0.0000 R=    0.0000 C=    0.0000
 XYZ=   -1.6206   -2.9634   10.4049 Q=   -0.8200 A=    0.0000 R=    0.0000 C=    0.0000
 XYZ=   -0.9362   -3.4956    9.9065 Q=    0.4100 A=    0.0000 R=    0.0000 C=    0.0000
 XYZ=   -2.2972   -3.5817   10.8046 Q=    0.4100 A=    0.0000 R=    0.0000 C=    0.0000
 XYZ=   -3.9532    5.2848   -8.7948 Q=   -0.8200 A=    0.0000 R=    0.0000 C=    0.0000
 XYZ=   -3.6834    5.9968   -9.4431 Q=    0.4100 A=    0.0000 R=    0.0000 C=    0.0000
 XYZ=   -4.9065    5.0300   -8.9573 Q=    0.4100 A=    0.0000 R=    0.0000 C=    0.0000
 XYZ=   -2.7384   -6.9345    6.7342 Q=   -0.8200 A=    0.0000 R=    0.0000 C=    0.0000
 XYZ=   -2.4255   -6.5404    7.5984 Q=    0.4100 A=    0.0000 R=    0.0000 C=    0.0000
 XYZ=   -3.6348   -7.3578    6.8661 Q=    0.4100 A=    0.0000 R=    0.0000 C=    0.0000
 XYZ=   -8.9513    4.9336    5.9632 Q=   -0.8200 A=    0.0000 R=    0.0000 C=    0.0000
 XYZ=   -8.5651    4.0116    5.9352 Q=    0.4100 A=    0.0000 R=    0.0000 C=    0.0000
 XYZ=   -8.2397    5.5852    6.2262 Q=    0.4100 A=    0.0000 R=    0.0000 C=    0.0000
 XYZ=   -1.0944    0.0900  -12.1397 Q=   -0.8200 A=    0.0000 R=    0.0000 C=    0.0000
 XYZ=   -0.6259   -0.1977  -11.3044 Q=    0.4100 A=    0.0000 R=    0.0000 C=    0.0000
 XYZ=   -2.0792    0.1341  -11.9711 Q=    0.4100 A=    0.0000 R=    0.0000 C=    0.0000
 XYZ=    3.7558    3.5551    9.3891 Q=   -0.8200 A=    0.0000 R=    0.0000 C=    0.0000
 XYZ=    4.0969    3.2443   10.2763 Q=    0.4100 A=    0.0000 R=    0.0000 C=    0.0000
 XYZ=    3.8908    4.5426    9.3076 Q=    0.4100 A=    0.0000 R=    0.0000 C=    0.0000
 XYZ=    6.6212    5.0833   -7.1047 Q=   -0.8200 A=    0.0000 R=    0.0000 C=    0.0000
 XYZ=    7.6106    5.2135   -7.0400 Q=    0.4100 A=    0.0000 R=    0.0000 C=    0.0000
 XYZ=    6.2417    5.7342   -7.7623 Q=    0.4100 A=    0.0000 R=    0.0000 C=    0.0000
 XYZ=   11.3248    1.1203   -0.8119 Q=   -0.8200 A=    0.0000 R=    0.0000 C=    0.0000
 XYZ=   11.3508    0.1398   -1.0065 Q=    0.4100 A=    0.0000 R=    0.0000 C=    0.0000
 XYZ=   11.0241    1.2651    0.1308 Q=    0.4100 A=    0.0000 R=    0.0000 C=    0.0000
 XYZ=   -8.9169   -6.6748    2.5144 Q=   -0.8200 A=    0.0000 R=    0.0000 C=    0.0000
 XYZ=   -9.7208   -6.8675    1.9517 Q=    0.4100 A=    0.0000 R=    0.0000 C=    0.0000
 XYZ=   -8.4028   -5.9168    2.1128 Q=    0.4100 A=    0.0000 R=    0.0000 C=    0.0000
 XYZ=   -6.6146   -7.3055    4.9820 Q=   -0.8200 A=    0.0000 R=    0.0000 C=    0.0000
 XYZ=   -5.9192   -6.7738    4.4986 Q=    0.4100 A=    0.0000 R=    0.0000 C=    0.0000
 XYZ=   -7.2560   -6.6843    5.4321 Q=    0.4100 A=    0.0000 R=    0.0000 C=    0.0000
 XYZ=    0.5882    5.0448   10.2488 Q=   -0.8200 A=    0.0000 R=    0.0000 C=    0.0000
 XYZ=   -0.0259    5.0563   11.0380 Q=    0.4100 A=    0.0000 R=    0.0000 C=    0.0000
 XYZ=    0.9286    4.1156   10.1049 Q=    0.4100 A=    0.0000 R=    0.0000 C=    0.0000
 XYZ=  -11.0313    3.0564    3.0264 Q=   -0.8200 A=    0.0000 R=    0.0000 C=    0.0000
 XYZ=  -11.8099    3.2955    3.6066 Q=    0.4100 A=    0.0000 R=    0.0000 C=    0.0000
 XYZ=  -10.8107    2.0885    3.1470 Q=    0.4100 A=    0.0000 R=    0.0000 C=    0.0000
 XYZ=   -4.0159    9.8570    1.9647 Q=   -0.8200 A=    0.0000 R=    0.0000 C=    0.0000
 XYZ=   -4.2991   10.3635    2.7792 Q=    0.4100 A=    0.0000 R=    0.0000 C=    0.0000
 XYZ=   -4.5546   10.1612    1.1790 Q=    0.4100 A=    0.0000 R=    0.0000 C=    0.0000
 XYZ=    9.9927    4.6750   -3.1813 Q=   -0.8200 A=    0.0000 R=    0.0000 C=    0.0000
 XYZ=   10.4158    5.1684   -2.4213 Q=    0.4100 A=    0.0000 R=    0.0000 C=    0.0000
 XYZ=    9.9385    3.7018   -2.9579 Q=    0.4100 A=    0.0000 R=    0.0000 C=    0.0000
 XYZ=    9.2457   -7.4990   -0.9098 Q=   -0.8200 A=    0.0000 R=    0.0000 C=    0.0000
 XYZ=    8.3849   -7.7327   -0.4577 Q=    0.4100 A=    0.0000 R=    0.0000 C=    0.0000
 XYZ=    9.9708   -8.1028   -0.5785 Q=    0.4100 A=    0.0000 R=    0.0000 C=    0.0000
 XYZ=    7.3425    6.8571    4.6882 Q=   -0.8200 A=    0.0000 R=    0.0000 C=    0.0000
 XYZ=    8.0616    6.1764    4.8275 Q=    0.4100 A=    0.0000 R=    0.0000 C=    0.0000
 XYZ=    6.8373    6.6420    3.8523 Q=    0.4100 A=    0.0000 R=    0.0000 C=    0.0000
 XYZ=    4.3093   -1.2612    9.8306 Q=   -0.8200 A=    0.0000 R=    0.0000 C=    0.0000
 XYZ=    5.0937   -0.8480    9.3679 Q=    0.4100 A=    0.0000 R=    0.0000 C=    0.0000
 XYZ=    4.6071   -2.0760   10.3281 Q=    0.4100 A=    0.0000 R=    0.0000 C=    0.0000
 XYZ=   -1.3781    5.3928  -10.8669 Q=   -0.8200 A=    0.0000 R=    0.0000 C=    0.0000
 XYZ=   -1.9315    4.7759  -11.4266 Q=    0.4100 A=    0.0000 R=    0.0000 C=    0.0000
 XYZ=   -0.9718    4.8815  -10.1097 Q=    0.4100 A=    0.0000 R=    0.0000 C=    0.0000
 XYZ=   -5.7343   -7.2390   -7.8629 Q=   -0.8200 A=    0.0000 R=    0.0000 C=    0.0000
 XYZ=   -5.1069   -7.8347   -8.3645 Q=    0.4100 A=    0.0000 R=    0.0000 C=    0.0000
 XYZ=   -5.4041   -7.1199   -6.9266 Q=    0.4100 A=    0.0000 R=    0.0000 C=    0.0000
 XYZ=   -3.9060   -8.9322    1.2718 Q=   -0.8200 A=    0.0000 R=    0.0000 C=    0.0000
 XYZ=   -4.8029   -8.8015    0.8492 Q=    0.4100 A=    0.0000 R=    0.0000 C=    0.0000
 XYZ=   -3.3693   -9.5734    0.7233 Q=    0.4100 A=    0.0000 R=    0.0000 C=    0.0000
 XYZ=   -2.2026   -6.1488    8.8123 Q=   -0.8200 A=    0.0000 R=    0.0000 C=    0.0000
 XYZ=   -1.3843   -5.6200    9.0380 Q=    0.4100 A=    0.0000 R=    0.0000 C=    0.0000
 XYZ=   -3.0147   -5.5825    8.9529 Q=    0.4100 A=    0.0000 R=    0.0000 C=    0.0000
 XYZ=   -0.1024    9.7452    6.8247 Q=   -0.8200 A=    0.0000 R=    0.0000 C=    0.0000
 XYZ=   -0.0318    8.9258    6.2558 Q=    0.4100 A=    0.0000 R=    0.0000 C=    0.0000
 XYZ=    0.7385   10.2804    6.7440 Q=    0.4100 A=    0.0000 R=    0.0000 C=    0.0000
 XYZ=   -7.1943    2.7620    8.1445 Q=   -0.8200 A=    0.0000 R=    0.0000 C=    0.0000
 XYZ=   -7.0910    2.1047    8.8910 Q=    0.4100 A=    0.0000 R=    0.0000 C=    0.0000
 XYZ=   -6.9663    3.6785    8.4735 Q=    0.4100 A=    0.0000 R=    0.0000 C=    0.0000
 XYZ=   -9.4301    3.1496   -7.1146 Q=   -0.8200 A=    0.0000 R=    0.0000 C=    0.0000
 XYZ=   -9.6796    3.9439   -7.6687 Q=    0.4100 A=    0.0000 R=    0.0000 C=    0.0000
 XYZ=   -8.4493    3.1732   -6.9209 Q=    0.4100 A=    0.0000 R=    0.0000 C=    0.0000
 XYZ=  -12.4503   -0.5968   -1.5111 Q=   -0.8200 A=    0.0000 R=    0.0000 C=    0.0000
 XYZ=  -12.8291    0.3280   -1.4738 Q=    0.4100 A=    0.0000 R=    0.0000 C=    0.0000
 XYZ=  -11.5306   -0.5963   -1.1184 Q=    0.4100 A=    0.0000 R=    0.0000 C=    0.0000
 XYZ=    8.8834    5.1240    5.3699 Q=   -0.8200 A=    0.0000 R=    0.0000 C=    0.0000
 XYZ=    8.7055    4.1756    5.1072 Q=    0.4100 A=    0.0000 R=    0.0000 C=    0.0000
 XYZ=    8.7677    5.2235    6.3582 Q=    0.4100 A=    0.0000 R=    0.0000 C=    0.0000
 XYZ=    4.2590    5.9823    9.1053 Q=   -0.8200 A=    0.0000 R=    0.0000 C=    0.0000
 XYZ=    5.0198    6.2252    9.7072 Q=    0.4100 A=    0.0000 R=    0.0000 C=    0.0000
 XYZ=    4.6169    5.6657    8.2269 Q=    0.4100 A=    0.0000 R=    0.0000 C=    0.0000
 XYZ=  -10.8293    1.8742   -3.7264 Q=   -0.8200 A=    0.0000 R=    0.0000 C=    0.0000
 XYZ=  -11.1896    1.8054   -2.7961 Q=    0.4100 A=    0.0000 R=    0.0000 C=    0.0000
 XYZ=  -11.4162    1.3578   -4.3501 Q=    0.4100 A=    0.0000 R=    0.0000 C=    0.0000
 XYZ=   11.1808   -5.0343    0.4757 Q=   -0.8200 A=    0.0000 R=    0.0000 C=    0.0000
 XYZ=   10.5589   -5.0288   -0.3074 Q=    0.4100 A=    0.0000 R=    0.0000 C=    0.0000
 XYZ=   11.6002   -5.9380    0.5620 Q=    0.4100 A=    0.0000 R=    0.0000 C=    0.0000
 XYZ=   -2.6502   -9.7645   -6.3381 Q=   -0.8200 A=    0.0000 R=    0.0000 C=    0.0000
 XYZ=   -2.6791   -8.7687   -6.4248 Q=    0.4100 A=    0.0000 R=    0.0000 C=    0.0000
 XYZ=   -2.8341  -10.1819   -7.2281 Q=    0.4100 A=    0.0000 R=    0.0000 C=    0.0000
 XYZ=   -8.1369   -5.8159    6.1773 Q=   -0.8200 A=    0.0000 R=    0.0000 C=    0.0000
 XYZ=   -9.0558   -5.9859    5.8212 Q=    0.4100 A=    0.0000 R=    0.0000 C=    0.0000
 XYZ=   -7.7967   -4.9460    5.8200 Q=    0.4100 A=    0.0000 R=    0.0000 C=    0.0000
 XYZ=   -7.8566   -2.1308   -8.5110 Q=   -0.8200 A=    0.0000 R=    0.0000 C=    0.0000
 XYZ=   -8.7747   -1.7363   -8.5501 Q=    0.4100 A=    0.0000 R=    0.0000 C=    0.0000
 XYZ=   -7.8090   -2.9247   -9.1173 Q=    0.4100 A=    0.0000 R=    0.0000 C=    0.0000
 XYZ=   -8.9109    0.8490    7.9854 Q=   -0.8200 A=    0.0000 R=    0.0000 C=    0.0000
 XYZ=   -8.7024    0.0782    7.3833 Q=    0.4100 A=    0.0000 R=    0.0000 C=    0.0000
 XYZ=   -8.3443    1.6329    7.7316 Q=    0.4100 A=    0.0000 R=    0.0000 C=    0.0000
 XYZ=   -7.2615    9.2335    0.7730 Q=   -0.8200 A=    0.0000 R=    0.0000 C=    0.0000
 XYZ=   -8.0860    9.7486    0.5387 Q=    0.4100 A=    0.0000 R=    0.0000 C=    0.0000
 XYZ=   -7.3458    8.8744    1.7026 Q=    0.4100 A=    0.0000 R=    0.0000 C=    0.0000
 XYZ=   11.4696   -3.1762    3.7247 Q=   -0.8200 A=    0.0000 R=    0.0000 C=    0.0000
 XYZ=   10.8023   -3.4961    3.0520 Q=    0.4100 A=    0.0000 R=    0.0000 C=    0.0000
 XYZ=   11.0213   -3.0642    4.6115 Q=    0.4100 A=    0.0000 R=    0.0000 C=    0.0000
 XYZ=   -6.1051    2.7116  -10.6601 Q=   -0.8200 A=    0.0000 R=    0.0000 C=    0.0000
 XYZ=   -6.4841    1.8727  -11.0507 Q=    0.4100 A=    0.0000 R=    0.0000 C=    0.0000
 XYZ=   -5.1482    2.5609  -10.4118 Q=    0.4100 A=    0.0000 R=    0.0000 C=    0.0000
 XYZ=   -3.8399    7.1850    9.1513 Q=   -0.8200 A=    0.0000 R=    0.0000 C=    0.0000
 XYZ=   -4.0378    6.6029    8.3626 Q=    0.4100 A=    0.0000 R=    0.0000 C=    0.0000
 XYZ=   -4.6980    7.4994    9.5572 Q=    0.4100 A=    0.0000 R=    0.0000 C=    0.0000
 XYZ=    0.1995   11.2262    2.9139 Q=   -0.8200 A=    0.0000 R=    0.0000 C=    0.0000
 XYZ=   -0.0049   10.3170    3.2768 Q=    0.4100 A=    0.0000 R=    0.0000 C=    0.0000
 XYZ=    0.1458   11.2064    1.9156 Q=    0.4100 A=    0.0000 R=    0.0000 C=    0.0000
 XYZ=   -0.6320   -6.7631  -10.8828 Q=   -0.8200 A=    0.0000 R=    0.0000 C=    0.0000
 XYZ=   -1.5989   -6.9403  -10.6992 Q=    0.4100 A=    0.0000 R=    0.0000 C=    0.0000
 XYZ=   -0.3429   -5.9449  -10.3857 Q=    0.4100 A=    0.0000 R=    0.0000 C=    0.0000
 XYZ=   -6.4702    4.9313    8.9572 Q=   -0.8200 A=    0.0000 R=    0.0000 C=    0.0000
 XYZ=   -7.0686    5.7154    9.1218 Q=    0.4100 A=    0.0000 R=    0.0000 C=    0.0000
 XYZ=   -5.7172    5.2063    8.3594 Q=    0.4100 A=    0.0000 R=    0.0000 C=    0.0000
 XYZ=   -5.7624   -5.1438   -9.1866 Q=   -0.8200 A=    0.0000 R=    0.0000 C=    0.0000
 XYZ=   -5.0606   -5.1110   -9.8982 Q=    0.4100 A=    0.0000 R=    0.0000 C=    0.0000
 XYZ=   -5.6189   -5.9510   -8.6140 Q=    0.4100 A=    0.0000 R=    0.0000 C=    0.0000
 XYZ=   -2.9350   -7.1408  -10.1935 Q=   -0.8200 A=    0.0000 R=    0.0000 C=    0.0000
 XYZ=   -3.4861   -6.4217  -10.6170 Q=    0.4100 A=    0.0000 R=    0.0000 C=    0.0000
 XYZ=   -2.5654   -6.8098   -9.3253 Q=    0.4100 A=    0.0000 R=    0.0000 C=    0.0000
 XYZ=    9.5402   -7.6698   -3.5795 Q=   -0.8200 A=    0.0000 R=    0.0000 C=    0.0000
 XYZ=    9.2104   -7.7334   -2.6376 Q=    0.4100 A=    0.0000 R=    0.0000 C=    0.0000
 XYZ=   10.2696   -8.3387   -3.7231 Q=    0.4100 A=    0.0000 R=    0.0000 C=    0.0000
 XYZ=  -10.5626    3.7296   -5.1320 Q=   -0.8200 A=    0.0000 R=    0.0000 C=    0.0000
 XYZ=  -10.0090    3.3443   -5.8703 Q=    0.4100 A=    0.0000 R=    0.0000 C=    0.0000
 XYZ=  -10.6246    3.0700   -4.3828 Q=    0.4100 A=    0.0000 R=    0.0000 C=    0.0000
 XYZ=   -5.4464   10.1136   -4.6404 Q=   -0.8200 A=    0.0000 R=    0.0000 C=    0.0000
 XYZ=   -5.2064    9.2359   -4.2254 Q=    0.4100 A=    0.0000 R=    0.0000 C=    0.0000
 XYZ=   -4.7366   10.3789   -5.2930 Q=    0.4100 A=    0.0000 R=    0.0000 C=    0.0000
 XYZ=    8.6452   -8.6683    3.4392 Q=   -0.8200 A=    0.0000 R=    0.0000 C=    0.0000
 XYZ=    7.8621   -8.1286    3.1302 Q=    0.4100 A=    0.0000 R=    0.0000 C=    0.0000
 XYZ=    8.6148   -8.7602    4.4345 Q=    0.4100 A=    0.0000 R=    0.0000 C=    0.0000
 XYZ=    0.7827    2.1336   12.2727 Q=   -0.8200 A=    0.0000 R=    0.0000 C=    0.0000
 XYZ=    1.1371    2.2965   11.3519 Q=    0.4100 A=    0.0000 R=    0.0000 C=    0.0000
 XYZ=    1.0059    1.2007   12.5555 Q=    0.4100 A=    0.0000 R=    0.0000 C=    0.0000
 XYZ=   -6.1949    4.5278   -9.0969 Q=   -0.8200 A=    0.0000 R=    0.0000 C=    0.0000
 XYZ=   -6.7709    5.2676   -9.4447 Q=    0.4100 A=    0.0000 R=    0.0000 C=    0.0000
 XYZ=   -6.1307    3.8042   -9.7842 Q=    0.4100 A=    0.0000 R=    0.0000 C=    0.0000
 XYZ=    3.3577   -0.7347   11.7827 Q=   -0.8200 A=    0.0000 R=    0.0000 C=    0.0000
 XYZ=    3.6153   -0.7886   10.8179 Q=    0.4100 A=    0.0000 R=    0.0000 C=    0.0000
 XYZ=    3.9442   -0.0715   12.2478 Q=    0.4100 A=    0.0000 R=    0.0000 C=    0.0000
 XYZ=    0.1492   11.5617    0.6065 Q=   -0.8200 A=    0.0000 R=    0.0000 C=    0.0000
 XYZ=    1.0700   11.8779    0.3782 Q=    0.4100 A=    0.0000 R=    0.0000 C=    0.0000
 XYZ=   -0.0896   10.7837    0.0254 Q=    0.4100 A=    0.0000 R=    0.0000 C=    0.0000
 XYZ=    9.2450    7.0861   -1.7768 Q=   -0.8200 A=    0.0000 R=    0.0000 C=    0.0000
 XYZ=    9.3034    7.4923   -2.6886 Q=    0.4100 A=    0.0000 R=    0.0000 C=    0.0000
 XYZ=    8.3049    7.1517   -1.4422 Q=    0.4100 A=    0.0000 R=    0.0000 C=    0.0000
 XYZ=   -4.2010   -4.9463    9.1862 Q=   -0.8200 A=    0.0000 R=    0.0000 C=    0.0000
 XYZ=   -5.0523   -5.4690    9.2325 Q=    0.4100 A=    0.0000 R=    0.0000 C=    0.0000
 XYZ=   -3.8855   -4.7406   10.1126 Q=    0.4100 A=    0.0000 R=    0.0000 C=    0.0000
 XYZ=   -7.3328    6.5002    6.6393 Q=   -0.8200 A=    0.0000 R=    0.0000 C=    0.0000
 XYZ=   -7.1668    7.3954    6.2257 Q=    0.4100 A=    0.0000 R=    0.0000 C=    0.0000
 XYZ=   -7.5727    6.6175    7.6030 Q=    0.4100 A=    0.0000 R=    0.0000 C=    0.0000
 XYZ=   -6.0169   -8.7450    0.4266 Q=   -0.8200 A=    0.0000 R=    0.0000 C=    0.0000
 XYZ=   -6.8495   -8.8572    0.9691 Q=    0.4100 A=    0.0000 R=    0.0000 C=    0.0000
 XYZ=   -5.9897   -9.4420   -0.2900 Q=    0.4100 A=    0.0000 R=    0.0000 C=    0.0000
 XYZ=   12.3334    1.0377    2.8647 Q=   -0.8200 A=    0.0000 R=    0.0000 C=    0.0000
 XYZ=   12.3332    0.0382    2.8983 Q=    0.4100 A=    0.0000 R=    0.0000 C=    0.0000
 XYZ=   11.5828    1.3517    2.2833 Q=    0.4100 A=    0.0000 R=    0.0000 C=    0.0000
 XYZ=   -4.1310   -5.2514  -10.8999 Q=   -0.8200 A=    0.0000 R=    0.0000 C=    0.0000
 XYZ=   -4.5874   -5.1795  -11.7868 Q=    0.4100 A=    0.0000 R=    0.0000 C=    0.0000
 XYZ=   -3.4682   -4.5086  -10.8051 Q=    0.4100 A=    0.0000 R=    0.0000 C=    0.0000
 XYZ=   -5.4619   10.6577    0.3429 Q=   -0.8200 A=    0.0000 R=    0.0000 C=    0.0000
 XYZ=   -5.8888   11.4100   -0.1591 Q=    0.4100 A=    0.0000 R=    0.0000 C=    0.0000
 XYZ=   -6.1710   10.0438    0.6898 Q=    0.4100 A=    0.0000 R=    0.0000 C=    0.0000
 XYZ=   -2.3645  -10.3965    0.1595 Q=   -0.8200 A=    0.0000 R=    0.0000 C=    0.0000
 XYZ=   -1.7612  -11.1097    0.5164 Q=    0.4100 A=    0.0000 R=    0.0000 C=    0.0000
 XYZ=   -2.8319  -10.7335   -0.6578 Q=    0.4100 A=    0.0000 R=    0.0000 C=    0.0000
 XYZ=    9.9830    1.7933    5.8443 Q=   -0.8200 A=    0.0000 R=    0.0000 C=    0.0000
 XYZ=   10.8699    1.9721    5.4182 Q=    0.4100 A=    0.0000 R=    0.0000 C=    0.0000
 XYZ=    9.9707    0.8627    6.2103 Q=    0.4100 A=    0.0000 R=    0.0000 C=    0.0000
 XYZ=   -2.5289    3.8552  -12.0344 Q=   -0.8200 A=    0.0000 R=    0.0000 C=    0.0000
 XYZ=   -3.0737    3.3667  -11.3528 Q=    0.4100 A=    0.0000 R=    0.0000 C=    0.0000
 XYZ=   -1.9847    3.1997  -12.5582 Q=    0.4100 A=    0.0000 R=    0.0000 C=    0.0000
 XYZ=   -0.7227   -1.7738   12.3973 Q=   -0.8200 A=    0.0000 R=    0.0000 C=    0.0000
 XYZ=   -0.9467   -2.1353   11.4922 Q=    0.4100 A=    0.0000 R=    0.0000 C=    0.0000
 XYZ=   -1.4909   -1.2326   12.7394 Q=    0.4100 A=    0.0000 R=    0.0000 C=    0.0000
 XYZ=    6.5464    6.5334    6.7699 Q=   -0.8200 A=    0.0000 R=    0.0000 C=    0.0000
 XYZ=    6.8278    6.7633    5.8382 Q=    0.4100 A=    0.0000 R=    0.0000 C=    0.0000
 XYZ=    6.8427    7.2554    7.3952 Q=    0.4100 A=    0.0000 R=    0.0000 C=    0.0000
 XYZ=    8.9223   -3.7171    7.3000 Q=   -0.8200 A=    0.0000 R=    0.0000 C=    0.0000
 XYZ=    8.2898   -3.0991    7.7670 Q=    0.4100 A=    0.0000 R=    0.0000 C=    0.0000
 XYZ=    9.3393   -4.3340    7.9675 Q=    0.4100 A=    0.0000 R=    0.0000 C=    0.0000
[...]
    39  O    0.000000   0.000000  -0.000001   0.000000   0.000000   0.000445
    40  H    0.000000   0.000000   0.000000   0.000000   0.000000   0.000027
    41  H    0.000000   0.000000   0.000000   0.000000   0.000000  -0.000048
    42  O    0.000000   0.000000  -0.000198   0.000001   0.000105   0.000000
    43  H    0.000000   0.000000   0.000003   0.000000  -0.000003   0.000000
    44  H    0.000000   0.000000   0.000004   0.000000  -0.000039   0.000000
    45  O    0.001673   0.000142   0.000000   0.000000   0.000000   0.000000
    46  H    0.000012  -0.000001   0.000000   0.000000   0.000000   0.000000
    47  H    0.000236  -0.000094   0.000000   0.000000   0.000000   0.000000
    48  O    0.000000   0.000000   0.002205  -0.000315  -0.000028   0.000065
    49  H    0.000000   0.000000  -0.000004   0.000001   0.000003   0.000001
    50  H    0.000000   0.000000  -0.000010   0.000001   0.000000  -0.000066
              31         32         33         34         35         36
     1  C   -0.000005   0.000020   0.000460  -0.000011  -0.000344  -0.000635
     2  H    0.000000  -0.000001   0.000000   0.000000   0.000000   0.000000
     3  H    0.000000   0.000000   0.000000   0.000000   0.000000  -0.000001
     4  C   -0.000039   0.000547   0.000374  -0.000137   0.004193  -0.000743
     5  H    0.000000   0.000000  -0.000005   0.000000  -0.000001  -0.000045
     6  C    0.000000  -0.000057  -0.006164   0.000483  -0.000957   0.002239
     7  H    0.000000   0.000000   0.000994   0.000021  -0.000472   0.000021
     8  O    0.000000   0.000000  -0.000911  -0.000007  -0.000150  -0.000022
     9  O    0.000000   0.000000  -0.048931   0.004926   0.000551  -0.000011
    10  H    0.000000   0.000000   0.002562   0.000145   0.004952  -0.000008
    11  H    0.000000   0.000000  -0.005938  -0.000631   0.000491   0.000000
    12  O    0.000000   0.000000  -0.000007   0.000000  -0.000004   0.000007
    13  H    0.000000   0.000000   0.000000   0.000000   0.000000  -0.000001
    14  H    0.000000   0.000000   0.000002   0.000000   0.000000   0.000001
    15  O    0.001814  -0.000445   0.000000   0.000000   0.000000   0.000000
    16  H    0.000002   0.002486   0.000000   0.000000   0.000000   0.000000
    17  H   -0.000084  -0.000729   0.000000   0.000000   0.000000   0.000000
    18  O    0.000000   0.000000   0.000000   0.000000   0.000000   0.000000
    19  H    0.000000   0.000000   0.000000   0.000000   0.000000   0.000000
    20  H    0.000000   0.000000   0.000000   0.000000   0.000000   0.000000
    21  O    0.000000   0.000000  -0.000001   0.000000   0.000000  -0.011350
    22  H    0.000000   0.000000   0.000000   0.000000   0.000000  -0.000212
    23  H    0.000000   0.000000   0.000000   0.000000   0.000000   0.003201
    24  O    0.000000   0.000000  -0.007862   0.000158  -0.001263   0.000000
    25  H    0.000000   0.000000  -0.006449  -0.000237  -0.000173   0.000000
    26  H    0.000000   0.000000  -0.000098  -0.000009  -0.000018   0.000000
    27  O    0.000000   0.000000   0.000000   0.000000   0.000000  -0.000555
    28  H    0.000000   0.000000   0.000000   0.000000   0.000000   0.000010
    29  H    0.000000   0.000000   0.000000   0.000000   0.000000   0.000356
    30  O    0.232281   0.172135   0.000000   0.000000   0.000000   0.000000
    31  H    0.190832  -0.006510   0.000000   0.000000   0.000000   0.000000
    32  H   -0.006510   0.207551   0.000000   0.000000   0.000000   0.000000
    33  O    0.000000   0.000000   8.940268   0.202958   0.157907   0.000008
    34  H    0.000000   0.000000   0.202958   0.207422  -0.007504   0.000000
    35  H    0.000000   0.000000   0.157907  -0.007504   0.189240   0.000000
    36  O    0.000000   0.000000   0.000008   0.000000   0.000000   8.787217
    37  H    0.000000   0.000000   0.000000   0.000000   0.000000   0.202911
    38  H    0.000000   0.000000  -0.000001   0.000000   0.000000   0.232989
    39  O    0.000024   0.001222   0.000000   0.000000   0.000000   0.000000
    40  H    0.000000   0.000012   0.000000   0.000000   0.000000   0.000000
    41  H    0.000000  -0.000007   0.000000   0.000000   0.000000   0.000000
    42  O    0.000000   0.000000  -0.000001   0.000000   0.000000  -0.077202
    43  H    0.000000   0.000000   0.000000   0.000000   0.000000  -0.000815
    44  H    0.000000   0.000000   0.000000   0.000000   0.000000   0.001262
    45  O    0.000000   0.000000  -0.000402  -0.000464   0.001327   0.000000
    46  H    0.000000   0.000000  -0.000062  -0.000001   0.000002   0.000000
    47  H    0.000000   0.000000   0.000191  -0.000001   0.000088   0.000000
    48  O    0.000021  -0.000012   0.000000   0.000000   0.000000   0.000000
    49  H    0.000000   0.000000   0.000000   0.000000   0.000000   0.000000
    50  H   -0.000002   0.000007   0.000000   0.000000   0.000000   0.000000
              37         38         39         40         41         42
     1  C    0.000028  -0.000321   0.003700  -0.000235   0.003185   0.004217
     2  H    0.000000   0.000000  -0.000020   0.000000   0.000000   0.000001
     3  H    0.000000   0.000000  -0.000213   0.000001   0.000050  -0.000027
     4  C    0.000069  -0.000177   0.001010   0.000053  -0.001439   0.004792
     5  H    0.000000   0.000001  -0.000001   0.000000   0.000000   0.000224
     6  C   -0.000135   0.000926  -0.000547   0.000004  -0.000077  -0.005984
     7  H    0.000000  -0.000006   0.000000   0.000000   0.000000   0.000017
     8  O    0.000000  -0.000017   0.000001   0.000000   0.000000   0.000003
     9  O    0.000000  -0.000031   0.000000   0.000000   0.000000   0.000009
    10  H    0.000000   0.000001   0.000000   0.000000   0.000000   0.000002
    11  H    0.000000   0.000000   0.000000   0.000000   0.000000   0.000000
    12  O    0.000000  -0.000006   0.000004   0.000000   0.000000  -0.000031
    13  H    0.000000   0.000000   0.000000   0.000000   0.000000   0.000008
    14  H    0.000000   0.000001   0.000000   0.000000   0.000000   0.000005
    15  O    0.000000   0.000000  -0.057040   0.000922   0.001612   0.000000
    16  H    0.000000   0.000000   0.034630   0.000242  -0.002571   0.000000
    17  H    0.000000   0.000000   0.000409  -0.000055  -0.000133   0.000000
    18  O    0.000000   0.000000   0.000001   0.000000   0.000000   0.000000
    19  H    0.000000   0.000000   0.000000   0.000000   0.000000   0.000000
    20  H    0.000000   0.000000   0.000000   0.000000   0.000000   0.000000
    21  O    0.000482   0.000148  -0.000002   0.000000   0.000000  -0.087886
    22  H   -0.000003   0.000012   0.000000   0.000000   0.000000   0.002502
    23  H   -0.000098  -0.000787   0.000000   0.000000   0.000000   0.076743
    24  O    0.000000   0.000000   0.000000   0.000000   0.000000   0.000000
    25  H    0.000000   0.000000   0.000000   0.000000   0.000000   0.000000
    26  H    0.000000   0.000000   0.000000   0.000000   0.000000   0.000000
    27  O    0.000000   0.000067  -0.000001   0.000000   0.000000  -0.000198
    28  H    0.000000   0.000000   0.000000   0.000000   0.000000   0.000001
    29  H    0.000001  -0.000015   0.000000   0.000000   0.000000   0.000105
    30  O    0.000000   0.000000   0.000445   0.000027  -0.000048   0.000000
    31  H    0.000000   0.000000   0.000024   0.000000   0.000000   0.000000
    32  H    0.000000   0.000000   0.001222   0.000012  -0.000007   0.000000
    33  O    0.000000  -0.000001   0.000000   0.000000   0.000000  -0.000001
    34  H    0.000000   0.000000   0.000000   0.000000   0.000000   0.000000
    35  H    0.000000   0.000000   0.000000   0.000000   0.000000   0.000000
    36  O    0.202911   0.232989   0.000000   0.000000   0.000000  -0.077202
    37  H    0.153708  -0.009645   0.000000   0.000000   0.000000   0.000245
    38  H   -0.009645   0.255679   0.000000   0.000000   0.000000  -0.000939
    39  O    0.000000   0.000000   8.669491   0.210435   0.239141   0.000000
    40  H    0.000000   0.000000   0.210435   0.158730  -0.007531   0.000000
    41  H    0.000000   0.000000   0.239141  -0.007531   0.272808   0.000000
    42  O    0.000245  -0.000939   0.000000   0.000000   0.000000   8.840715
    43  H   -0.000007   0.000042   0.000000   0.000000   0.000000   0.233026
    44  H   -0.000819   0.001098   0.000000   0.000000   0.000000   0.169208
    45  O    0.000000   0.000000   0.000000   0.000000   0.000000   0.000000
    46  H    0.000000   0.000000   0.000000   0.000000   0.000000   0.000000
    47  H    0.000000   0.000000   0.000000   0.000000   0.000000   0.000000
    48  O    0.000000   0.000000  -0.000125   0.000000   0.000001   0.000000
    49  H    0.000000   0.000000   0.000006   0.000000   0.000000   0.000000
    50  H    0.000000   0.000000   0.000016   0.000000   0.000000   0.000000
              43         44         45         46         47         48
     1  C   -0.000095   0.000273  -0.000246   0.000010   0.000024  -0.006713
     2  H    0.000000   0.000000   0.000000   0.000000   0.000000   0.000215
     3  H    0.000000   0.000000   0.000000   0.000000   0.000000  -0.000037
     4  C   -0.000179  -0.001840   0.004399  -0.000068  -0.000293   0.006118
     5  H   -0.000016   0.000004   0.000000   0.000000   0.000000   0.000000
     6  C    0.000119   0.000923   0.000841  -0.000325  -0.000847  -0.000600
     7  H    0.000000  -0.000001  -0.000011   0.000001  -0.000005   0.000000
     8  O    0.000000  -0.000002  -0.002229   0.000010   0.000021   0.000030
     9  O    0.000000  -0.000001  -0.054637   0.000826   0.002903   0.000000
    10  H    0.000000   0.000000  -0.003667  -0.000057  -0.000172   0.000000
    11  H    0.000000   0.000000   0.065096  -0.000404  -0.003578   0.000000
    12  O    0.000000   0.000000  -0.000078   0.000005   0.000003   0.001142
    13  H    0.000000   0.000000  -0.000001   0.000000   0.000000  -0.000377
    14  H    0.000000   0.000000   0.000008   0.000000   0.000003  -0.000025
    15  O    0.000000   0.000000   0.000000   0.000000   0.000000   0.000332
    16  H    0.000000   0.000000   0.000000   0.000000   0.000000  -0.000021
    17  H    0.000000   0.000000   0.000000   0.000000   0.000000   0.002077
    18  O    0.000000   0.000000   0.000003   0.000000   0.000000  -0.067526
    19  H    0.000000   0.000000   0.000000   0.000000   0.000000  -0.003702
    20  H    0.000000   0.000000   0.000001   0.000000   0.000000   0.000451
    21  O    0.001577   0.012232   0.000000   0.000000   0.000000  -0.000071
    22  H    0.000003  -0.000193   0.000000   0.000000   0.000000   0.000000
    23  H   -0.000474  -0.004596   0.000000   0.000000   0.000000   0.000000
    24  O    0.000000   0.000000  -0.006807   0.000139   0.000670   0.000000
    25  H    0.000000   0.000000   0.001673   0.000012   0.000236   0.000000
    26  H    0.000000   0.000000   0.000142  -0.000001  -0.000094   0.000000
    27  O    0.000003   0.000004   0.000000   0.000000   0.000000   0.002205
    28  H    0.000000   0.000000   0.000000   0.000000   0.000000  -0.000315
    29  H   -0.000003  -0.000039   0.000000   0.000000   0.000000  -0.000028
    30  O    0.000000   0.000000   0.000000   0.000000   0.000000   0.000065
    31  H    0.000000   0.000000   0.000000   0.000000   0.000000   0.000021
    32  H    0.000000   0.000000   0.000000   0.000000   0.000000  -0.000012
    33  O    0.000000   0.000000  -0.000402  -0.000062   0.000191   0.000000
    34  H    0.000000   0.000000  -0.000464  -0.000001  -0.000001   0.000000
    35  H    0.000000   0.000000   0.001327   0.000002   0.000088   0.000000
    36  O   -0.000815   0.001262   0.000000   0.000000   0.000000   0.000000
    37  H   -0.000007  -0.000819   0.000000   0.000000   0.000000   0.000000
    38  H    0.000042   0.001098   0.000000   0.000000   0.000000   0.000000
    39  O    0.000000   0.000000   0.000000   0.000000   0.000000  -0.000125
    40  H    0.000000   0.000000   0.000000   0.000000   0.000000   0.000000
    41  H    0.000000   0.000000   0.000000   0.000000   0.000000   0.000001
    42  O    0.233026   0.169208   0.000000   0.000000   0.000000   0.000000
    43  H    0.165311  -0.007946   0.000000   0.000000   0.000000   0.000000
    44  H   -0.007946   0.267372   0.000000   0.000000   0.000000   0.000000
    45  O    0.000000   0.000000   8.780751   0.200739   0.201238   0.000000
    46  H    0.000000   0.000000   0.200739   0.146926  -0.004622   0.000000
    47  H    0.000000   0.000000   0.201238  -0.004622   0.193036   0.000000
    48  O    0.000000   0.000000   0.000000   0.000000   0.000000   8.834446
    49  H    0.000000   0.000000   0.000000   0.000000   0.000000   0.219683
    50  H    0.000000   0.000000   0.000000   0.000000   0.000000   0.212602
              49         50
     1  C   -0.000088  -0.000333
     2  H   -0.000012   0.000005
     3  H    0.000000   0.000001
     4  C   -0.000172   0.000096
     5  H    0.000000   0.000000
     6  C    0.000002  -0.000030
     7  H    0.000000   0.000000
     8  O   -0.000002   0.000002
     9  O    0.000000   0.000000
    10  H    0.000000   0.000000
    11  H    0.000000   0.000000
    12  O   -0.000433  -0.000007
    13  H    0.000036   0.000001
    14  H    0.000000   0.000001
    15  O   -0.000041   0.000214
    16  H    0.000000  -0.000029
    17  H   -0.000037   0.000525
    18  O   -0.001756   0.002852
    19  H   -0.001848   0.001764
    20  H   -0.000014  -0.000092
    21  O    0.000003   0.000001
    22  H    0.000000   0.000000
    23  H    0.000000   0.000000
    24  O    0.000000   0.000000
    25  H    0.000000   0.000000
    26  H    0.000000   0.000000
    27  O   -0.000004  -0.000010
    28  H    0.000001   0.000001
    29  H    0.000003   0.000000
    30  O    0.000001  -0.000066
    31  H    0.000000  -0.000002
    32  H    0.000000   0.000007
    33  O    0.000000   0.000000
    34  H    0.000000   0.000000
    35  H    0.000000   0.000000
    36  O    0.000000   0.000000
    37  H    0.000000   0.000000
    38  H    0.000000   0.000000
    39  O    0.000006   0.000016
    40  H    0.000000   0.000000
    41  H    0.000000   0.000000
    42  O    0.000000   0.000000
    43  H    0.000000   0.000000
    44  H    0.000000   0.000000
    45  O    0.000000   0.000000
    46  H    0.000000   0.000000
    47  H    0.000000   0.000000
    48  O    0.219683   0.212602
    49  H    0.167320  -0.007049
    50  H   -0.007049   0.197940
 Mulliken charges:
               1
     1  C   -0.300165
     2  H    0.280130
     3  H    0.217727
     4  C   -0.178405
     5  H    0.231749
     6  C   -0.004651
     7  H    0.161239
     8  O   -0.332835
     9  O   -1.338672
    10  H    0.515481
    11  H    0.640879
    12  O   -1.211004
    13  H    0.629755
    14  H    0.549544
    15  O   -1.121928
    16  H    0.595983
    17  H    0.556945
    18  O   -1.236859
    19  H    0.566310
    20  H    0.638877
    21  O   -1.164530
    22  H    0.606472
    23  H    0.559162
    24  O   -1.248512
    25  H    0.670181
    26  H    0.602727
    27  O   -1.288887
    28  H    0.657696
    29  H    0.605449
    30  O   -1.256392
    31  H    0.581666
    32  H    0.623780
    33  O   -1.228891
    34  H    0.592891
    35  H    0.652134
    36  O   -1.138621
    37  H    0.653263
    38  H    0.520979
    39  O   -1.102586
    40  H    0.637395
    41  H    0.495009
    42  O   -1.159552
    43  H    0.609454
    44  H    0.563060
    45  O   -1.187675
    46  H    0.656871
    47  H    0.611201
    48  O   -1.199837
    49  H    0.624401
    50  H    0.591591
 Sum of Mulliken charges =   0.00000
 Mulliken charges with hydrogens summed into heavy atoms:
               1
     1  C    0.197692
     4  C    0.053345
     6  C    0.156588
     8  O   -0.332835
     9  O   -0.182311
    12  O   -0.031706
    15  O    0.030999
    18  O   -0.031671
    21  O    0.001104
    24  O    0.024396
    27  O   -0.025742
    30  O   -0.050946
    33  O    0.016134
    36  O    0.035622
    39  O    0.029818
    42  O    0.012962
    45  O    0.080397
    48  O    0.016155
 Electronic spatial extent (au):  <R**2>=          12884.7994
 Charge=              0.0000 electrons
 Dipole moment (field-independent basis, Debye):
    X=             -5.0137    Y=             19.7636    Z=             -5.5369  Tot=             21.1281
 Quadrupole moment (field-independent basis, Debye-Ang):
   XX=           -105.9221   YY=           -105.9498   ZZ=           -154.5779
   XY=             58.6541   XZ=             -1.9370   YZ=            -26.8810
 Traceless Quadrupole moment (field-independent basis, Debye-Ang):
   XX=             16.2278   YY=             16.2002   ZZ=            -32.4280
   XY=             58.6541   XZ=             -1.9370   YZ=            -26.8810
 Octapole moment (field-independent basis, Debye-Ang**2):
  XXX=           -165.8525  YYY=             99.5542  ZZZ=           -159.2775  XYY=           -147.9205
  XXY=            456.2237  XXZ=            156.8165  XZZ=            -99.0876  YZZ=            102.9739
  YYZ=             -4.8327  XYZ=             13.4440
 Hexadecapole moment (field-independent basis, Debye-Ang**3):
 XXXX=          -9271.5807 YYYY=          -4229.3759 ZZZZ=          -2952.9165 XXXY=           1637.4307
 XXXZ=            464.8036 YYYX=            646.2962 YYYZ=           -136.9107 ZZZX=           -517.4522
 ZZZY=           -175.0108 XXYY=          -1612.0554 XXZZ=          -1975.5595 YYZZ=           -841.7259
 XXYZ=          -1102.7609 YYXZ=            434.7347 ZZXY=            419.9206
 N-N= 1.074105517444D+03 E-N=-6.114899028001D+03  KE= 1.249084518321D+03
 Leave Link  601 at Fri Sep 14 18:49:03 2018, MaxMem=    33554432 cpu:         7.3
 (Enter /usr/local/pacerepov1/gaussian/G09D01LINDA/g09/l9999.exe)

 Test job not archived.
 1\1\GINC-RICH133-C38-18-R\SP\RLC-wPBE TD-FC\6-31+G(d)\C3H32O15\ROOT\14
 -Sep-2018\0\\#p td=(nstates=15)/6-31+g(d) lc-wpbe charge\\Acroleina in
  Water\\0,1\C,0,0.485154,0.480443,-1.430142\H,0,1.461403,0.187773,-1.0
 55732\H,0,0.429244,0.878853,-2.437062\C,0,-0.605127,0.346563,-0.658432
 \H,0,-1.591686,0.632893,-1.012412\C,0,-0.508516,-0.199107,0.712798\H,0
 ,-1.458487,-0.272107,1.272438\O,0,0.544883,-0.561317,1.236519\O,0,-1.3
 46646,-1.135032,3.190961\H,0,-0.929916,-0.537172,2.506191\H,0,-0.95209
 6,-0.939182,4.088741\O,0,2.291204,1.459068,1.095951\H,0,2.046114,2.351
 948,0.718081\H,0,1.458994,0.940668,1.292741\O,0,3.135544,-1.424792,-4.
 055599\H,0,2.729604,-0.976882,-4.852269\H,0,3.724684,-0.776632,-3.5730
 59\O,0,4.655524,1.295978,0.761351\H,0,4.875794,1.351328,-0.212539\H,0,
 3.662464,1.299598,0.879161\O,0,-0.754706,3.713678,-0.468219\H,0,-0.313
 066,4.542128,-0.812699\H,0,-1.747516,3.812268,-0.536439\O,0,-0.091746,
 -3.188622,2.749041\H,0,-0.682366,-2.414332,2.976391\H,0,-0.498246,-4.0
 32162,3.100021\O,0,1.603544,3.653678,0.478111\H,0,2.050764,3.984198,-0
 .353009\H,0,0.625304,3.536968,0.306311\O,0,4.599024,-3.168112,-3.89138
 9\H,0,5.257814,-2.854742,-3.207369\H,0,3.879354,-2.482272,-3.999749\O,
 0,-3.483686,-1.557202,3.818541\H,0,-3.464766,-2.138512,4.632041\H,0,-2
 .571496,-1.526002,3.409921\O,0,-3.214066,4.427988,1.614521\H,0,-4.2134
 66,4.405377,1.642671\H,0,-2.848736,3.642098,2.113491\O,0,2.034484,-0.2
 69242,-5.988769\H,0,2.133394,0.402308,-6.723129\H,0,1.215114,-0.060842
 ,-5.454749\O,0,-3.282676,4.114337,-0.752469\H,0,-4.121336,3.583238,-0.
 873429\H,0,-3.219206,4.425668,0.195731\O,0,0.093684,-1.007892,5.354621
 \H,0,0.627664,-0.368812,5.908201\H,0,0.696364,-1.468442,4.702941\O,0,4
 .913264,1.527848,-1.640749\H,0,4.548634,2.436128,-1.846079\H,0,4.93655
 4,0.981008,-2.477719\\Version=EM64L-G09RevD.01\State=1-A\HF=-1759.3714
 638\RMSD=4.014e-09\PG=C01 [X(C3H32O15)]\\@


 MY GROUP MEETINGS AREN'T VERY STRUCTURED.
     -- PROF. M. S. GORDON, OCT. 5, 1984
 Job cpu time:       0 days  3 hours 17 minutes 10.0 seconds.
 File lengths (MBytes):  RWF=    792 Int=      0 D2E=      0 Chk=     96 Scr=      2
 Normal termination of Gaussian 09 at Fri Sep 14 18:49:08 2018.
