 Entering Gaussian System, Link 0=g09
 Input=Acroleina_water_15_9c.gjf
 Output=Acroleina_water_15_9c.log
 Initial command:
 /usr/local/pacerepov1/gaussian/G09D01LINDA/g09/l1.exe /nv/hp18/holiveira7/scratch/22412063/Gau-56156.inp -scrdir=/nv/hp18/holiveira7/scratch/22412063/
 Entering Link 1 = /usr/local/pacerepov1/gaussian/G09D01LINDA/g09/l1.exe PID=     56157.
  
 Copyright (c) 1988,1990,1992,1993,1995,1998,2003,2009,2013,
            Gaussian, Inc.  All Rights Reserved.
  
 This is part of the Gaussian(R) 09 program.  It is based on
 the Gaussian(R) 03 system (copyright 2003, Gaussian, Inc.),
 the Gaussian(R) 98 system (copyright 1998, Gaussian, Inc.),
 the Gaussian(R) 94 system (copyright 1995, Gaussian, Inc.),
 the Gaussian 92(TM) system (copyright 1992, Gaussian, Inc.),
 the Gaussian 90(TM) system (copyright 1990, Gaussian, Inc.),
 the Gaussian 88(TM) system (copyright 1988, Gaussian, Inc.),
 the Gaussian 86(TM) system (copyright 1986, Carnegie Mellon
 University), and the Gaussian 82(TM) system (copyright 1983,
 Carnegie Mellon University). Gaussian is a federally registered
 trademark of Gaussian, Inc.
  
 This software contains proprietary and confidential information,
 including trade secrets, belonging to Gaussian, Inc.
  
 This software is provided under written license and may be
 used, copied, transmitted, or stored only in accord with that
 written license.
  
 The following legend is applicable only to US Government
 contracts under FAR:
  
                    RESTRICTED RIGHTS LEGEND
  
 Use, reproduction and disclosure by the US Government is
 subject to restrictions as set forth in subparagraphs (a)
 and (c) of the Commercial Computer Software - Restricted
 Rights clause in FAR 52.227-19.
  
 Gaussian, Inc.
 340 Quinnipiac St., Bldg. 40, Wallingford CT 06492
  
  
 ---------------------------------------------------------------
 Warning -- This program may not be used in any manner that
 competes with the business of Gaussian, Inc. or will provide
 assistance to any competitor of Gaussian, Inc.  The licensee
 of this program is prohibited from giving any competitor of
 Gaussian, Inc. access to this program.  By using this program,
 the user acknowledges that Gaussian, Inc. is engaged in the
 business of creating and licensing software in the field of
 computational chemistry and represents and warrants to the
 licensee that it is not a competitor of Gaussian, Inc. and that
 it will not use this program in any manner prohibited above.
 ---------------------------------------------------------------
  

 Cite this work as:
 Gaussian 09, Revision D.01,
 M. J. Frisch, G. W. Trucks, H. B. Schlegel, G. E. Scuseria, 
 M. A. Robb, J. R. Cheeseman, G. Scalmani, V. Barone, B. Mennucci, 
 G. A. Petersson, H. Nakatsuji, M. Caricato, X. Li, H. P. Hratchian, 
 A. F. Izmaylov, J. Bloino, G. Zheng, J. L. Sonnenberg, M. Hada, 
 M. Ehara, K. Toyota, R. Fukuda, J. Hasegawa, M. Ishida, T. Nakajima, 
 Y. Honda, O. Kitao, H. Nakai, T. Vreven, J. A. Montgomery, Jr., 
 J. E. Peralta, F. Ogliaro, M. Bearpark, J. J. Heyd, E. Brothers, 
 K. N. Kudin, V. N. Staroverov, T. Keith, R. Kobayashi, J. Normand, 
 K. Raghavachari, A. Rendell, J. C. Burant, S. S. Iyengar, J. Tomasi, 
 M. Cossi, N. Rega, J. M. Millam, M. Klene, J. E. Knox, J. B. Cross, 
 V. Bakken, C. Adamo, J. Jaramillo, R. Gomperts, R. E. Stratmann, 
 O. Yazyev, A. J. Austin, R. Cammi, C. Pomelli, J. W. Ochterski, 
 R. L. Martin, K. Morokuma, V. G. Zakrzewski, G. A. Voth, 
 P. Salvador, J. J. Dannenberg, S. Dapprich, A. D. Daniels, 
 O. Farkas, J. B. Foresman, J. V. Ortiz, J. Cioslowski, 
 and D. J. Fox, Gaussian, Inc., Wallingford CT, 2013.
 
 ******************************************
 Gaussian 09:  EM64L-G09RevD.01 24-Apr-2013
                14-Sep-2018 
 ******************************************
 %chk=Acrolina_Din_9.chk
 %nprocshared=10
 Will use up to   10 processors via shared memory.
 -------------------------------------------
 #p td=(nstates=15)/6-31+g(d) lc-wpbe charge
 -------------------------------------------
 1/18=10,28=-2,38=1,125=101/1;
 2/12=2,17=6,18=5,40=1/2;
 3/5=1,6=6,7=11,11=9,16=1,25=1,30=1,74=-41/1,2,8,3;
 4//1;
 5/5=2,38=5/2;
 8/6=1,10=2,108=15/1;
 9/41=15,42=1,70=2/14;
 6/7=2,8=2,9=2,10=2/1;
 99/5=1,9=1/99;
 Leave Link    1 at Fri Sep 14 17:59:28 2018, MaxMem=           0 cpu:         5.5
 (Enter /usr/local/pacerepov1/gaussian/G09D01LINDA/g09/l101.exe)
 ------------------
 Acroleina in Water
 ------------------
 Symbolic Z-matrix:
 Charge =  0 Multiplicity = 1
 C                     0.48515   0.48044  -1.43014 
 H                     1.4614    0.18777  -1.05573 
 H                     0.42924   0.87885  -2.43706 
 C                    -0.60513   0.34656  -0.65843 
 H                    -1.59169   0.63289  -1.01241 
 C                    -0.50852  -0.19911   0.7128 
 H                    -1.45849  -0.27211   1.27244 
 O                     0.54488  -0.56132   1.23652 
 O                     0.17041  -1.77316   3.4088 
 H                     0.29292  -0.93684   2.87439 
 H                     0.58301  -1.65495   4.31203 
 O                     3.1041    0.61848   1.41363 
 H                     2.95813   1.5665    1.13074 
 H                     2.22542   0.14238   1.44964 
 O                     0.14478   3.28691  -0.59571 
 H                     0.63744   3.97421  -1.12951 
 H                    -0.83269   3.49802  -0.60168 
 O                    -1.93799   3.27347  -3.81108 
 H                    -1.60142   3.37358  -2.87475 
 H                    -2.91149   3.50019  -3.84131 
 O                    -2.1702   -2.43857   3.2103 
 H                    -2.24991  -2.87799   4.10507 
 H                    -1.26284  -2.0279    3.12033 
 O                    -1.81794   4.41171   1.6872 
 H                    -2.70363   4.01221   1.92391 
 H                    -1.11055   4.03031   2.28235 
 O                     1.40288  -3.91144   2.75576 
 H                     0.84706  -3.08011   2.75662 
 H                     0.8735   -4.66668   3.14222 
 O                    -2.15132   3.99879  -0.91483 
 H                    -3.05729   3.64221  -1.14316 
 H                    -2.16438   4.37275   0.01254 
 O                     2.46385   3.32572   0.49925 
 H                     2.99974   3.57474  -0.30747 
 H                     1.50246   3.22551   0.2428 
 O                    -2.58351   1.3662   -5.55057 
 H                    -2.01846   1.94232  -4.9599 
 H                    -2.67262   1.79622  -6.44902 
 O                    -4.32127   3.30074  -1.35603 
 H                    -4.91699   3.9971   -0.95571 
 H                    -4.72025   2.39576  -1.20807 
 O                     3.89066  -1.75427  -4.53687 
 H                     3.76234  -1.49308  -5.49363 
 H                     4.45094  -1.06612  -4.07582 
 O                    -4.11012   3.94536   1.63511 
 H                    -4.64953   4.4781    0.98299 
 H                    -4.5079    4.03478   2.54824 
 O                    -5.86368   2.24106   1.36748 
 H                    -4.96577   2.65492   1.51768 
 H                    -5.87472   1.78211   0.47906 
 
 NAtoms=     50 NQM=       50 NQMF=       0 NMMI=      0 NMMIF=      0
                NMic=       0 NMicF=      0.
                    Isotopes and Nuclear Properties:
 (Nuclear quadrupole moments (NQMom) in fm**2, nuclear magnetic moments (NMagM)
  in nuclear magnetons)

  Atom         1           2           3           4           5           6           7           8           9          10
 IAtWgt=          12           1           1          12           1          12           1          16          16           1
 AtmWgt=  12.0000000   1.0078250   1.0078250  12.0000000   1.0078250  12.0000000   1.0078250  15.9949146  15.9949146   1.0078250
 NucSpn=           0           1           1           0           1           0           1           0           0           1
 AtZEff=   0.0000000   0.0000000   0.0000000   0.0000000   0.0000000   0.0000000   0.0000000   0.0000000   0.0000000   0.0000000
 NQMom=    0.0000000   0.0000000   0.0000000   0.0000000   0.0000000   0.0000000   0.0000000   0.0000000   0.0000000   0.0000000
 NMagM=    0.0000000   2.7928460   2.7928460   0.0000000   2.7928460   0.0000000   2.7928460   0.0000000   0.0000000   2.7928460
 AtZNuc=   6.0000000   1.0000000   1.0000000   6.0000000   1.0000000   6.0000000   1.0000000   8.0000000   8.0000000   1.0000000

  Atom        11          12          13          14          15          16          17          18          19          20
 IAtWgt=           1          16           1           1          16           1           1          16           1           1
 AtmWgt=   1.0078250  15.9949146   1.0078250   1.0078250  15.9949146   1.0078250   1.0078250  15.9949146   1.0078250   1.0078250
 NucSpn=           1           0           1           1           0           1           1           0           1           1
 AtZEff=   0.0000000   0.0000000   0.0000000   0.0000000   0.0000000   0.0000000   0.0000000   0.0000000   0.0000000   0.0000000
 NQMom=    0.0000000   0.0000000   0.0000000   0.0000000   0.0000000   0.0000000   0.0000000   0.0000000   0.0000000   0.0000000
 NMagM=    2.7928460   0.0000000   2.7928460   2.7928460   0.0000000   2.7928460   2.7928460   0.0000000   2.7928460   2.7928460
 AtZNuc=   1.0000000   8.0000000   1.0000000   1.0000000   8.0000000   1.0000000   1.0000000   8.0000000   1.0000000   1.0000000

  Atom        21          22          23          24          25          26          27          28          29          30
 IAtWgt=          16           1           1          16           1           1          16           1           1          16
 AtmWgt=  15.9949146   1.0078250   1.0078250  15.9949146   1.0078250   1.0078250  15.9949146   1.0078250   1.0078250  15.9949146
 NucSpn=           0           1           1           0           1           1           0           1           1           0
 AtZEff=   0.0000000   0.0000000   0.0000000   0.0000000   0.0000000   0.0000000   0.0000000   0.0000000   0.0000000   0.0000000
 NQMom=    0.0000000   0.0000000   0.0000000   0.0000000   0.0000000   0.0000000   0.0000000   0.0000000   0.0000000   0.0000000
 NMagM=    0.0000000   2.7928460   2.7928460   0.0000000   2.7928460   2.7928460   0.0000000   2.7928460   2.7928460   0.0000000
 AtZNuc=   8.0000000   1.0000000   1.0000000   8.0000000   1.0000000   1.0000000   8.0000000   1.0000000   1.0000000   8.0000000

  Atom        31          32          33          34          35          36          37          38          39          40
 IAtWgt=           1           1          16           1           1          16           1           1          16           1
 AtmWgt=   1.0078250   1.0078250  15.9949146   1.0078250   1.0078250  15.9949146   1.0078250   1.0078250  15.9949146   1.0078250
 NucSpn=           1           1           0           1           1           0           1           1           0           1
 AtZEff=   0.0000000   0.0000000   0.0000000   0.0000000   0.0000000   0.0000000   0.0000000   0.0000000   0.0000000   0.0000000
 NQMom=    0.0000000   0.0000000   0.0000000   0.0000000   0.0000000   0.0000000   0.0000000   0.0000000   0.0000000   0.0000000
 NMagM=    2.7928460   2.7928460   0.0000000   2.7928460   2.7928460   0.0000000   2.7928460   2.7928460   0.0000000   2.7928460
 AtZNuc=   1.0000000   1.0000000   8.0000000   1.0000000   1.0000000   8.0000000   1.0000000   1.0000000   8.0000000   1.0000000

  Atom        41          42          43          44          45          46          47          48          49          50
 IAtWgt=           1          16           1           1          16           1           1          16           1           1
 AtmWgt=   1.0078250  15.9949146   1.0078250   1.0078250  15.9949146   1.0078250   1.0078250  15.9949146   1.0078250   1.0078250
 NucSpn=           1           0           1           1           0           1           1           0           1           1
 AtZEff=   0.0000000   0.0000000   0.0000000   0.0000000   0.0000000   0.0000000   0.0000000   0.0000000   0.0000000   0.0000000
 NQMom=    0.0000000   0.0000000   0.0000000   0.0000000   0.0000000   0.0000000   0.0000000   0.0000000   0.0000000   0.0000000
 NMagM=    2.7928460   0.0000000   2.7928460   2.7928460   0.0000000   2.7928460   2.7928460   0.0000000   2.7928460   2.7928460
 AtZNuc=   1.0000000   8.0000000   1.0000000   1.0000000   8.0000000   1.0000000   1.0000000   8.0000000   1.0000000   1.0000000
 Background charge distribution read from input stream:
 Point Charges:
 XYZ=    5.3398    0.7609    0.7200 Q=   -0.8200 A=    0.0000 R=    0.0000 C=    0.0000
 XYZ=    5.2552    0.9444   -0.2594 Q=    0.4100 A=    0.0000 R=    0.0000 C=    0.0000
 XYZ=    4.4286    0.6748    1.1229 Q=    0.4100 A=    0.0000 R=    0.0000 C=    0.0000
 XYZ=    1.5125   -1.1743    5.2553 Q=   -0.8200 A=    0.0000 R=    0.0000 C=    0.0000
 XYZ=    2.0827   -0.5592    5.7998 Q=    0.4100 A=    0.0000 R=    0.0000 C=    0.0000
 XYZ=    2.0954   -1.8212    4.7637 Q=    0.4100 A=    0.0000 R=    0.0000 C=    0.0000
 XYZ=    2.7235   -5.3678    1.3039 Q=   -0.8200 A=    0.0000 R=    0.0000 C=    0.0000
 XYZ=    2.1664   -4.5824    1.5739 Q=    0.4100 A=    0.0000 R=    0.0000 C=    0.0000
 XYZ=    3.1084   -5.7996    2.1196 Q=    0.4100 A=    0.0000 R=    0.0000 C=    0.0000
 XYZ=    3.2629   -0.7956   -6.6810 Q=   -0.8200 A=    0.0000 R=    0.0000 C=    0.0000
 XYZ=    3.4522    0.0025   -7.2531 Q=    0.4100 A=    0.0000 R=    0.0000 C=    0.0000
 XYZ=    2.3121   -0.7664   -6.3724 Q=    0.4100 A=    0.0000 R=    0.0000 C=    0.0000
 XYZ=    2.8090   -2.7942    4.2320 Q=   -0.8200 A=    0.0000 R=    0.0000 C=    0.0000
 XYZ=    3.7002   -2.6196    3.8132 Q=    0.4100 A=    0.0000 R=    0.0000 C=    0.0000
 XYZ=    2.2321   -3.2988    3.5898 Q=    0.4100 A=    0.0000 R=    0.0000 C=    0.0000
 XYZ=   -4.3009   -2.3436    2.2917 Q=   -0.8200 A=    0.0000 R=    0.0000 C=    0.0000
 XYZ=   -3.3155   -2.3912    2.4550 Q=    0.4100 A=    0.0000 R=    0.0000 C=    0.0000
 XYZ=   -4.7259   -3.2071    2.5634 Q=    0.4100 A=    0.0000 R=    0.0000 C=    0.0000
 XYZ=   -1.5550    6.1309   -2.2887 Q=   -0.8200 A=    0.0000 R=    0.0000 C=    0.0000
 XYZ=   -1.3874    5.2507   -1.8447 Q=    0.4100 A=    0.0000 R=    0.0000 C=    0.0000
 XYZ=   -1.5222    6.8604   -1.6055 Q=    0.4100 A=    0.0000 R=    0.0000 C=    0.0000
 XYZ=   -4.1662    3.7710   -3.7543 Q=   -0.8200 A=    0.0000 R=    0.0000 C=    0.0000
 XYZ=   -4.3537    3.7287   -2.7729 Q=    0.4100 A=    0.0000 R=    0.0000 C=    0.0000
 XYZ=   -4.8618    3.2502   -4.2492 Q=    0.4100 A=    0.0000 R=    0.0000 C=    0.0000
 XYZ=   -0.7706    6.7111    1.3455 Q=   -0.8200 A=    0.0000 R=    0.0000 C=    0.0000
 XYZ=   -1.2601    7.2974    1.9911 Q=    0.4100 A=    0.0000 R=    0.0000 C=    0.0000
 XYZ=   -1.0918    5.7689    1.4415 Q=    0.4100 A=    0.0000 R=    0.0000 C=    0.0000
 XYZ=   -1.7793    4.2070   -6.0041 Q=   -0.8200 A=    0.0000 R=    0.0000 C=    0.0000
 XYZ=   -1.9374    3.7898   -5.1090 Q=    0.4100 A=    0.0000 R=    0.0000 C=    0.0000
 XYZ=   -2.6554    4.4679   -6.4095 Q=    0.4100 A=    0.0000 R=    0.0000 C=    0.0000
 XYZ=   -4.2986   -1.0919    4.5416 Q=   -0.8200 A=    0.0000 R=    0.0000 C=    0.0000
 XYZ=   -3.3987   -0.8746    4.9199 Q=    0.4100 A=    0.0000 R=    0.0000 C=    0.0000
 XYZ=   -4.1894   -1.4987    3.6346 Q=    0.4100 A=    0.0000 R=    0.0000 C=    0.0000
 XYZ=   -4.5697    0.3211   -5.4558 Q=   -0.8200 A=    0.0000 R=    0.0000 C=    0.0000
 XYZ=   -4.5555   -0.5869   -5.0370 Q=    0.4100 A=    0.0000 R=    0.0000 C=    0.0000
 XYZ=   -3.6344    0.6657   -5.5363 Q=    0.4100 A=    0.0000 R=    0.0000 C=    0.0000
 XYZ=    1.4342    4.9800   -1.6529 Q=   -0.8200 A=    0.0000 R=    0.0000 C=    0.0000
 XYZ=    2.4121    4.7960   -1.7529 Q=    0.4100 A=    0.0000 R=    0.0000 C=    0.0000
 XYZ=    1.0993    5.4542   -2.4672 Q=    0.4100 A=    0.0000 R=    0.0000 C=    0.0000
 XYZ=    5.0720   -3.7903   -4.1769 Q=   -0.8200 A=    0.0000 R=    0.0000 C=    0.0000
 XYZ=    5.6879   -3.5742   -3.4192 Q=    0.4100 A=    0.0000 R=    0.0000 C=    0.0000
 XYZ=    4.5322   -2.9810   -4.4087 Q=    0.4100 A=    0.0000 R=    0.0000 C=    0.0000
 XYZ=   -0.3329   -2.6836    6.6102 Q=   -0.8200 A=    0.0000 R=    0.0000 C=    0.0000
 XYZ=    0.2777   -2.0239    6.1721 Q=    0.4100 A=    0.0000 R=    0.0000 C=    0.0000
 XYZ=   -1.0481   -2.9547    5.9659 Q=    0.4100 A=    0.0000 R=    0.0000 C=    0.0000
 XYZ=    5.7931    1.0401   -1.6870 Q=   -0.8200 A=    0.0000 R=    0.0000 C=    0.0000
 XYZ=    5.6555    1.9539   -2.0692 Q=    0.4100 A=    0.0000 R=    0.0000 C=    0.0000
 XYZ=    5.7810    0.3650   -2.4248 Q=    0.4100 A=    0.0000 R=    0.0000 C=    0.0000
 XYZ=    3.8995    4.6548    1.7034 Q=   -0.8200 A=    0.0000 R=    0.0000 C=    0.0000
 XYZ=    3.1981    4.0518    1.3233 Q=    0.4100 A=    0.0000 R=    0.0000 C=    0.0000
 XYZ=    4.1966    5.3035    1.0028 Q=    0.4100 A=    0.0000 R=    0.0000 C=    0.0000
 XYZ=    2.0834   -6.7735   -0.5954 Q=   -0.8200 A=    0.0000 R=    0.0000 C=    0.0000
 XYZ=    2.2388   -6.1452    0.1669 Q=    0.4100 A=    0.0000 R=    0.0000 C=    0.0000
 XYZ=    2.9528   -7.1825   -0.8728 Q=    0.4100 A=    0.0000 R=    0.0000 C=    0.0000
 XYZ=   -6.2825    1.4040   -0.8030 Q=   -0.8200 A=    0.0000 R=    0.0000 C=    0.0000
 XYZ=   -6.6095    0.4847   -0.5837 Q=    0.4100 A=    0.0000 R=    0.0000 C=    0.0000
 XYZ=   -6.6798    1.7007   -1.6714 Q=    0.4100 A=    0.0000 R=    0.0000 C=    0.0000
 XYZ=    5.8560   -0.6549   -3.4034 Q=   -0.8200 A=    0.0000 R=    0.0000 C=    0.0000
 XYZ=    6.3847   -0.5640   -4.2473 Q=    0.4100 A=    0.0000 R=    0.0000 C=    0.0000
 XYZ=    6.0221   -1.5554   -3.0013 Q=    0.4100 A=    0.0000 R=    0.0000 C=    0.0000
 XYZ=    4.6277   -5.8748    0.0482 Q=   -0.8200 A=    0.0000 R=    0.0000 C=    0.0000
 XYZ=    3.7356   -5.6810    0.4563 Q=    0.4100 A=    0.0000 R=    0.0000 C=    0.0000
 XYZ=    4.5118   -6.4959   -0.7269 Q=    0.4100 A=    0.0000 R=    0.0000 C=    0.0000
 XYZ=    6.4299   -2.7358   -2.4170 Q=   -0.8200 A=    0.0000 R=    0.0000 C=    0.0000
 XYZ=    7.3074   -2.3309   -2.1600 Q=    0.4100 A=    0.0000 R=    0.0000 C=    0.0000
 XYZ=    6.0746   -3.2742   -1.6529 Q=    0.4100 A=    0.0000 R=    0.0000 C=    0.0000
 XYZ=   -7.0685    0.8732    2.8628 Q=   -0.8200 A=    0.0000 R=    0.0000 C=    0.0000
 XYZ=   -6.5018    1.3776    2.2114 Q=    0.4100 A=    0.0000 R=    0.0000 C=    0.0000
 XYZ=   -6.5333    0.6702    3.6828 Q=    0.4100 A=    0.0000 R=    0.0000 C=    0.0000
 XYZ=    0.4305    5.8462   -3.5263 Q=   -0.8200 A=    0.0000 R=    0.0000 C=    0.0000
 XYZ=   -0.5085    5.9841   -3.2111 Q=    0.4100 A=    0.0000 R=    0.0000 C=    0.0000
 XYZ=    0.4190    5.4323   -4.4366 Q=    0.4100 A=    0.0000 R=    0.0000 C=    0.0000
 XYZ=    7.1860   -0.7653    1.1503 Q=   -0.8200 A=    0.0000 R=    0.0000 C=    0.0000
 XYZ=    6.3799   -0.2331    0.8914 Q=    0.4100 A=    0.0000 R=    0.0000 C=    0.0000
 XYZ=    6.8978   -1.6512    1.5139 Q=    0.4100 A=    0.0000 R=    0.0000 C=    0.0000
 XYZ=   -6.2397   -2.5637    1.0564 Q=   -0.8200 A=    0.0000 R=    0.0000 C=    0.0000
 XYZ=   -5.3561   -2.4262    1.5040 Q=    0.4100 A=    0.0000 R=    0.0000 C=    0.0000
 XYZ=   -6.4531   -3.5404    1.0332 Q=    0.4100 A=    0.0000 R=    0.0000 C=    0.0000
 XYZ=    6.1675   -4.1242   -0.3914 Q=   -0.8200 A=    0.0000 R=    0.0000 C=    0.0000
 XYZ=    5.4031   -4.6848   -0.0730 Q=    0.4100 A=    0.0000 R=    0.0000 C=    0.0000
 XYZ=    6.9947   -4.6842   -0.4384 Q=    0.4100 A=    0.0000 R=    0.0000 C=    0.0000
 XYZ=    4.9569   -2.3487    3.4289 Q=   -0.8200 A=    0.0000 R=    0.0000 C=    0.0000
 XYZ=    5.3158   -1.5400    3.8951 Q=    0.4100 A=    0.0000 R=    0.0000 C=    0.0000
 XYZ=    5.5930   -2.6285    2.7097 Q=    0.4100 A=    0.0000 R=    0.0000 C=    0.0000
 XYZ=   -5.6780    2.4048   -4.9851 Q=   -0.8200 A=    0.0000 R=    0.0000 C=    0.0000
 XYZ=   -5.8783    2.9459   -5.8019 Q=    0.4100 A=    0.0000 R=    0.0000 C=    0.0000
 XYZ=   -5.1712    1.5830   -5.2457 Q=    0.4100 A=    0.0000 R=    0.0000 C=    0.0000
 XYZ=   -3.8261    6.1206   -3.2547 Q=   -0.8200 A=    0.0000 R=    0.0000 C=    0.0000
 XYZ=   -2.8869    6.2010   -2.9208 Q=    0.4100 A=    0.0000 R=    0.0000 C=    0.0000
 XYZ=   -3.9799    5.1937   -3.5972 Q=    0.4100 A=    0.0000 R=    0.0000 C=    0.0000
 XYZ=    0.4791    4.6952   -5.6917 Q=   -0.8200 A=    0.0000 R=    0.0000 C=    0.0000
 XYZ=   -0.4917    4.4787   -5.7952 Q=    0.4100 A=    0.0000 R=    0.0000 C=    0.0000
 XYZ=    0.8654    4.9287   -6.5840 Q=    0.4100 A=    0.0000 R=    0.0000 C=    0.0000
 XYZ=   -2.1488   -3.4960    5.3753 Q=   -0.8200 A=    0.0000 R=    0.0000 C=    0.0000
 XYZ=   -2.6673   -3.5931    6.2249 Q=    0.4100 A=    0.0000 R=    0.0000 C=    0.0000
 XYZ=   -1.9915   -4.3992    4.9758 Q=    0.4100 A=    0.0000 R=    0.0000 C=    0.0000
 XYZ=   -6.0372    0.2385    4.9032 Q=   -0.8200 A=    0.0000 R=    0.0000 C=    0.0000
 XYZ=   -5.2020   -0.2994    4.7885 Q=    0.4100 A=    0.0000 R=    0.0000 C=    0.0000
 XYZ=   -6.7443   -0.3296    5.3243 Q=    0.4100 A=    0.0000 R=    0.0000 C=    0.0000
 XYZ=    2.7138    3.4989   -6.3646 Q=   -0.8200 A=    0.0000 R=    0.0000 C=    0.0000
 XYZ=    3.5461    3.8802   -5.9621 Q=    0.4100 A=    0.0000 R=    0.0000 C=    0.0000
 XYZ=    1.9210    3.7899   -5.8291 Q=    0.4100 A=    0.0000 R=    0.0000 C=    0.0000
 XYZ=   -5.1561    4.1987    4.0285 Q=   -0.8200 A=    0.0000 R=    0.0000 C=    0.0000
 XYZ=   -5.8095    4.7886    3.5541 Q=    0.4100 A=    0.0000 R=    0.0000 C=    0.0000
 XYZ=   -5.6253    3.7003    4.7575 Q=    0.4100 A=    0.0000 R=    0.0000 C=    0.0000
 XYZ=    6.4839   -2.9266    1.7097 Q=   -0.8200 A=    0.0000 R=    0.0000 C=    0.0000
 XYZ=    6.4706   -3.2079    0.7501 Q=    0.4100 A=    0.0000 R=    0.0000 C=    0.0000
 XYZ=    6.6439   -3.7258    2.2890 Q=    0.4100 A=    0.0000 R=    0.0000 C=    0.0000
 XYZ=    3.3821   -3.7746    6.2149 Q=   -0.8200 A=    0.0000 R=    0.0000 C=    0.0000
 XYZ=    3.1731   -3.3916    5.3151 Q=    0.4100 A=    0.0000 R=    0.0000 C=    0.0000
 XYZ=    3.8823   -3.0991    6.7566 Q=    0.4100 A=    0.0000 R=    0.0000 C=    0.0000
 XYZ=    3.8057    4.3669   -1.4863 Q=   -0.8200 A=    0.0000 R=    0.0000 C=    0.0000
 XYZ=    4.1993    5.1217   -0.9616 Q=    0.4100 A=    0.0000 R=    0.0000 C=    0.0000
 XYZ=    4.5221    3.9298   -2.0301 Q=    0.4100 A=    0.0000 R=    0.0000 C=    0.0000
 XYZ=    0.1411   -5.6869    3.5241 Q=   -0.8200 A=    0.0000 R=    0.0000 C=    0.0000
 XYZ=   -0.1923   -6.3557    2.8596 Q=    0.4100 A=    0.0000 R=    0.0000 C=    0.0000
 XYZ=    0.8151   -6.1196    4.1229 Q=    0.4100 A=    0.0000 R=    0.0000 C=    0.0000
 XYZ=   -5.8299    4.8324   -0.1448 Q=   -0.8200 A=    0.0000 R=    0.0000 C=    0.0000
 XYZ=   -5.9171    5.5515   -0.8343 Q=    0.4100 A=    0.0000 R=    0.0000 C=    0.0000
 XYZ=   -6.7221    4.6617    0.2733 Q=    0.4100 A=    0.0000 R=    0.0000 C=    0.0000
 XYZ=   -0.3973   -7.3322   -0.2111 Q=   -0.8200 A=    0.0000 R=    0.0000 C=    0.0000
 XYZ=    0.4798   -7.0746   -0.6165 Q=    0.4100 A=    0.0000 R=    0.0000 C=    0.0000
 XYZ=   -0.5856   -8.2944   -0.4078 Q=    0.4100 A=    0.0000 R=    0.0000 C=    0.0000
 XYZ=    1.3790    7.2015    1.7595 Q=   -0.8200 A=    0.0000 R=    0.0000 C=    0.0000
 XYZ=    1.3178    8.0528    2.2806 Q=    0.4100 A=    0.0000 R=    0.0000 C=    0.0000
 XYZ=    0.4621    6.9135    1.4829 Q=    0.4100 A=    0.0000 R=    0.0000 C=    0.0000
 XYZ=   -7.5083    4.1581    1.5142 Q=   -0.8200 A=    0.0000 R=    0.0000 C=    0.0000
 XYZ=   -6.7537    3.5066    1.4354 Q=    0.4100 A=    0.0000 R=    0.0000 C=    0.0000
 XYZ=   -8.3691    3.6994    1.2935 Q=    0.4100 A=    0.0000 R=    0.0000 C=    0.0000
 XYZ=    4.8559   -2.1357   -7.7139 Q=   -0.8200 A=    0.0000 R=    0.0000 C=    0.0000
 XYZ=    4.8994   -3.0143   -7.2383 Q=    0.4100 A=    0.0000 R=    0.0000 C=    0.0000
 XYZ=    4.1893   -1.5440   -7.2605 Q=    0.4100 A=    0.0000 R=    0.0000 C=    0.0000
 XYZ=    6.6944    1.8066    2.4114 Q=   -0.8200 A=    0.0000 R=    0.0000 C=    0.0000
 XYZ=    6.1802    2.6269    2.6618 Q=    0.4100 A=    0.0000 R=    0.0000 C=    0.0000
 XYZ=    6.1813    1.2873    1.7279 Q=    0.4100 A=    0.0000 R=    0.0000 C=    0.0000
 XYZ=    3.1113   -0.1452    6.7934 Q=   -0.8200 A=    0.0000 R=    0.0000 C=    0.0000
 XYZ=    3.6413   -0.9615    7.0233 Q=    0.4100 A=    0.0000 R=    0.0000 C=    0.0000
 XYZ=    3.7303    0.5800    6.4918 Q=    0.4100 A=    0.0000 R=    0.0000 C=    0.0000
 XYZ=    2.1215    7.0539   -0.4775 Q=   -0.8200 A=    0.0000 R=    0.0000 C=    0.0000
 XYZ=    1.9071    6.9104    0.4887 Q=    0.4100 A=    0.0000 R=    0.0000 C=    0.0000
 XYZ=    1.8648    6.2410   -1.0002 Q=    0.4100 A=    0.0000 R=    0.0000 C=    0.0000
 XYZ=   -2.8459   -5.9314    0.9503 Q=   -0.8200 A=    0.0000 R=    0.0000 C=    0.0000
 XYZ=   -2.0284   -6.2636    0.4798 Q=    0.4100 A=    0.0000 R=    0.0000 C=    0.0000
 XYZ=   -3.6574   -6.1691    0.4165 Q=    0.4100 A=    0.0000 R=    0.0000 C=    0.0000
 XYZ=   -7.0605   -1.1583   -0.7145 Q=   -0.8200 A=    0.0000 R=    0.0000 C=    0.0000
 XYZ=   -6.7515   -1.5334   -1.5885 Q=    0.4100 A=    0.0000 R=    0.0000 C=    0.0000
 XYZ=   -6.7668   -1.7595    0.0287 Q=    0.4100 A=    0.0000 R=    0.0000 C=    0.0000
 XYZ=    2.5285    5.8100    3.4234 Q=   -0.8200 A=    0.0000 R=    0.0000 C=    0.0000
 XYZ=    2.0695    6.4618    2.8196 Q=    0.4100 A=    0.0000 R=    0.0000 C=    0.0000
 XYZ=    3.1150    5.2089    2.8805 Q=    0.4100 A=    0.0000 R=    0.0000 C=    0.0000
 XYZ=    8.0088    0.4997   -0.6823 Q=   -0.8200 A=    0.0000 R=    0.0000 C=    0.0000
 XYZ=    7.1570    0.6779   -1.1750 Q=    0.4100 A=    0.0000 R=    0.0000 C=    0.0000
 XYZ=    7.8048    0.0311    0.1773 Q=    0.4100 A=    0.0000 R=    0.0000 C=    0.0000
 XYZ=    5.8382   -0.7285    4.8312 Q=   -0.8200 A=    0.0000 R=    0.0000 C=    0.0000
 XYZ=    6.2975   -1.1012    5.6375 Q=    0.4100 A=    0.0000 R=    0.0000 C=    0.0000
 XYZ=    5.3102    0.0796    5.0922 Q=    0.4100 A=    0.0000 R=    0.0000 C=    0.0000
 XYZ=   -1.6797   -5.5847    4.8212 Q=   -0.8200 A=    0.0000 R=    0.0000 C=    0.0000
 XYZ=   -0.8787   -5.6200    4.2236 Q=    0.4100 A=    0.0000 R=    0.0000 C=    0.0000
 XYZ=   -1.6213   -6.3164    5.5004 Q=    0.4100 A=    0.0000 R=    0.0000 C=    0.0000
 XYZ=   -7.1186    2.2237   -3.1706 Q=   -0.8200 A=    0.0000 R=    0.0000 C=    0.0000
 XYZ=   -6.5968    2.2529   -4.0232 Q=    0.4100 A=    0.0000 R=    0.0000 C=    0.0000
 XYZ=   -8.0960    2.1895   -3.3791 Q=    0.4100 A=    0.0000 R=    0.0000 C=    0.0000
 XYZ=    5.5720    3.1929   -2.6598 Q=   -0.8200 A=    0.0000 R=    0.0000 C=    0.0000
 XYZ=    6.4949    3.4864   -2.4102 Q=    0.4100 A=    0.0000 R=    0.0000 C=    0.0000
 XYZ=    5.4354    3.3222   -3.6420 Q=    0.4100 A=    0.0000 R=    0.0000 C=    0.0000
 XYZ=    5.6717    3.7361    3.0196 Q=   -0.8200 A=    0.0000 R=    0.0000 C=    0.0000
 XYZ=    5.2972    3.4574    3.9040 Q=    0.4100 A=    0.0000 R=    0.0000 C=    0.0000
 XYZ=    4.9348    4.0857    2.4409 Q=    0.4100 A=    0.0000 R=    0.0000 C=    0.0000
 XYZ=    1.3612    1.7460    8.1284 Q=   -0.8200 A=    0.0000 R=    0.0000 C=    0.0000
 XYZ=    1.5983    0.9394    7.5869 Q=    0.4100 A=    0.0000 R=    0.0000 C=    0.0000
 XYZ=    0.4262    1.6543    8.4710 Q=    0.4100 A=    0.0000 R=    0.0000 C=    0.0000
 XYZ=    1.2569   -4.6134    6.7066 Q=   -0.8200 A=    0.0000 R=    0.0000 C=    0.0000
 XYZ=    2.1867   -4.2739    6.5641 Q=    0.4100 A=    0.0000 R=    0.0000 C=    0.0000
 XYZ=    0.6126   -3.8500    6.6604 Q=    0.4100 A=    0.0000 R=    0.0000 C=    0.0000
 XYZ=   -0.1006    3.3708   -8.3759 Q=   -0.8200 A=    0.0000 R=    0.0000 C=    0.0000
 XYZ=   -0.5481    2.9345   -7.5952 Q=    0.4100 A=    0.0000 R=    0.0000 C=    0.0000
 XYZ=    0.8040    2.9663   -8.5103 Q=    0.4100 A=    0.0000 R=    0.0000 C=    0.0000
 XYZ=   -1.3249    7.9863   -0.7081 Q=   -0.8200 A=    0.0000 R=    0.0000 C=    0.0000
 XYZ=   -0.4804    8.4484   -0.9790 Q=    0.4100 A=    0.0000 R=    0.0000 C=    0.0000
 XYZ=   -1.2153    7.6023    0.2088 Q=    0.4100 A=    0.0000 R=    0.0000 C=    0.0000
 XYZ=    2.2426    2.3067   -8.3192 Q=   -0.8200 A=    0.0000 R=    0.0000 C=    0.0000
 XYZ=    2.3191    2.9124   -7.5271 Q=    0.4100 A=    0.0000 R=    0.0000 C=    0.0000
 XYZ=    3.0186    1.6762   -8.3327 Q=    0.4100 A=    0.0000 R=    0.0000 C=    0.0000
 XYZ=    4.8287    1.2127    5.8375 Q=   -0.8200 A=    0.0000 R=    0.0000 C=    0.0000
 XYZ=    5.3919    1.1785    6.6631 Q=    0.4100 A=    0.0000 R=    0.0000 C=    0.0000
 XYZ=    4.7162    2.1639    5.5500 Q=    0.4100 A=    0.0000 R=    0.0000 C=    0.0000
 XYZ=   -4.5313    6.0107    5.3667 Q=   -0.8200 A=    0.0000 R=    0.0000 C=    0.0000
 XYZ=   -5.4221    6.2290    5.7653 Q=    0.4100 A=    0.0000 R=    0.0000 C=    0.0000
 XYZ=   -4.6250    5.2302    4.7487 Q=    0.4100 A=    0.0000 R=    0.0000 C=    0.0000
 XYZ=    5.0159   -6.3472   -4.1339 Q=   -0.8200 A=    0.0000 R=    0.0000 C=    0.0000
 XYZ=    4.8665   -5.3629   -4.2288 Q=    0.4100 A=    0.0000 R=    0.0000 C=    0.0000
 XYZ=    4.4651   -6.8347   -4.8114 Q=    0.4100 A=    0.0000 R=    0.0000 C=    0.0000
 XYZ=   -3.3703   -5.6952    3.2413 Q=   -0.8200 A=    0.0000 R=    0.0000 C=    0.0000
 XYZ=   -2.5569   -5.7499    3.8205 Q=    0.4100 A=    0.0000 R=    0.0000 C=    0.0000
 XYZ=   -3.0951   -5.6910    2.2798 Q=    0.4100 A=    0.0000 R=    0.0000 C=    0.0000
 XYZ=   -4.9906   -4.9982   -4.6478 Q=   -0.8200 A=    0.0000 R=    0.0000 C=    0.0000
 XYZ=   -3.9942   -4.9428   -4.5836 Q=    0.4100 A=    0.0000 R=    0.0000 C=    0.0000
 XYZ=   -5.2921   -4.5913   -5.5101 Q=    0.4100 A=    0.0000 R=    0.0000 C=    0.0000
 XYZ=   -5.3715   -2.2575    6.3614 Q=   -0.8200 A=    0.0000 R=    0.0000 C=    0.0000
 XYZ=   -4.8681   -1.8081    5.6234 Q=    0.4100 A=    0.0000 R=    0.0000 C=    0.0000
 XYZ=   -4.7324   -2.7628    6.9413 Q=    0.4100 A=    0.0000 R=    0.0000 C=    0.0000
 XYZ=    5.3593   -4.1275   -6.6999 Q=   -0.8200 A=    0.0000 R=    0.0000 C=    0.0000
 XYZ=    5.3339   -4.0947   -5.7007 Q=    0.4100 A=    0.0000 R=    0.0000 C=    0.0000
 XYZ=    6.3070   -4.2166   -7.0064 Q=    0.4100 A=    0.0000 R=    0.0000 C=    0.0000
 XYZ=    4.9049   -4.5167    4.5553 Q=   -0.8200 A=    0.0000 R=    0.0000 C=    0.0000
 XYZ=    5.1427   -3.5811    4.2940 Q=    0.4100 A=    0.0000 R=    0.0000 C=    0.0000
 XYZ=    4.2920   -4.4965    5.3453 Q=    0.4100 A=    0.0000 R=    0.0000 C=    0.0000
 XYZ=   -7.7341   -1.5841    2.5020 Q=   -0.8200 A=    0.0000 R=    0.0000 C=    0.0000
 XYZ=   -7.0438   -1.9570    1.8819 Q=    0.4100 A=    0.0000 R=    0.0000 C=    0.0000
 XYZ=   -7.5023   -0.6382    2.7288 Q=    0.4100 A=    0.0000 R=    0.0000 C=    0.0000
 XYZ=   -4.9980    1.0166   -7.8565 Q=   -0.8200 A=    0.0000 R=    0.0000 C=    0.0000
 XYZ=   -5.6247    0.3963   -8.3282 Q=    0.4100 A=    0.0000 R=    0.0000 C=    0.0000
 XYZ=   -4.9400    0.7612   -6.8914 Q=    0.4100 A=    0.0000 R=    0.0000 C=    0.0000
 XYZ=   -0.8309   -7.3517    2.1154 Q=   -0.8200 A=    0.0000 R=    0.0000 C=    0.0000
 XYZ=   -0.5826   -7.3164    1.1473 Q=    0.4100 A=    0.0000 R=    0.0000 C=    0.0000
 XYZ=   -1.7656   -7.6951    2.2074 Q=    0.4100 A=    0.0000 R=    0.0000 C=    0.0000
 XYZ=   -2.8062    2.1958   -7.8022 Q=   -0.8200 A=    0.0000 R=    0.0000 C=    0.0000
 XYZ=   -3.7386    1.8676   -7.9541 Q=    0.4100 A=    0.0000 R=    0.0000 C=    0.0000
 XYZ=   -2.8149    3.1911   -7.7056 Q=    0.4100 A=    0.0000 R=    0.0000 C=    0.0000
 XYZ=    4.7233    3.4390    5.3457 Q=   -0.8200 A=    0.0000 R=    0.0000 C=    0.0000
 XYZ=    5.3237    3.7696    6.0739 Q=    0.4100 A=    0.0000 R=    0.0000 C=    0.0000
 XYZ=    3.8707    3.9616    5.3537 Q=    0.4100 A=    0.0000 R=    0.0000 C=    0.0000
 XYZ=    3.5459   -6.1485    3.2435 Q=   -0.8200 A=    0.0000 R=    0.0000 C=    0.0000
 XYZ=    2.8379   -6.5861    3.7978 Q=    0.4100 A=    0.0000 R=    0.0000 C=    0.0000
 XYZ=    3.9951   -5.4340    3.7800 Q=    0.4100 A=    0.0000 R=    0.0000 C=    0.0000
 XYZ=    3.8147    0.7750   -8.3260 Q=   -0.8200 A=    0.0000 R=    0.0000 C=    0.0000
 XYZ=    4.7973    0.9496   -8.2626 Q=    0.4100 A=    0.0000 R=    0.0000 C=    0.0000
 XYZ=    3.5755    0.5561   -9.2720 Q=    0.4100 A=    0.0000 R=    0.0000 C=    0.0000
 XYZ=   -1.7456   -2.3989    8.4686 Q=   -0.8200 A=    0.0000 R=    0.0000 C=    0.0000
 XYZ=   -1.1182   -2.5691    7.7087 Q=    0.4100 A=    0.0000 R=    0.0000 C=    0.0000
 XYZ=   -1.3544   -2.7663    9.3124 Q=    0.4100 A=    0.0000 R=    0.0000 C=    0.0000
 XYZ=    2.7689    4.8000    5.5850 Q=   -0.8200 A=    0.0000 R=    0.0000 C=    0.0000
 XYZ=    2.7673    5.4028    4.7871 Q=    0.4100 A=    0.0000 R=    0.0000 C=    0.0000
 XYZ=    1.9830    5.0134    6.1655 Q=    0.4100 A=    0.0000 R=    0.0000 C=    0.0000
 XYZ=   -6.5046    2.8407    5.6882 Q=   -0.8200 A=    0.0000 R=    0.0000 C=    0.0000
 XYZ=   -6.4850    2.9298    6.6840 Q=    0.4100 A=    0.0000 R=    0.0000 C=    0.0000
 XYZ=   -6.4622    1.8731    5.4393 Q=    0.4100 A=    0.0000 R=    0.0000 C=    0.0000
 XYZ=    0.3474    8.2825   -3.5600 Q=   -0.8200 A=    0.0000 R=    0.0000 C=    0.0000
 XYZ=   -0.1117    8.6644   -4.3621 Q=    0.4100 A=    0.0000 R=    0.0000 C=    0.0000
 XYZ=    0.3751    7.2856   -3.6350 Q=    0.4100 A=    0.0000 R=    0.0000 C=    0.0000
 XYZ=   -7.5568    4.8370   -2.3927 Q=   -0.8200 A=    0.0000 R=    0.0000 C=    0.0000
 XYZ=   -6.8543    5.5274   -2.2197 Q=    0.4100 A=    0.0000 R=    0.0000 C=    0.0000
 XYZ=   -7.1215    3.9820   -2.6747 Q=    0.4100 A=    0.0000 R=    0.0000 C=    0.0000
 XYZ=    4.2465   -7.3880   -1.6964 Q=   -0.8200 A=    0.0000 R=    0.0000 C=    0.0000
 XYZ=    5.1053   -7.8538   -1.4831 Q=    0.4100 A=    0.0000 R=    0.0000 C=    0.0000
 XYZ=    4.2530   -7.0987   -2.6536 Q=    0.4100 A=    0.0000 R=    0.0000 C=    0.0000
 XYZ=    5.4264   -6.8623    2.0613 Q=   -0.8200 A=    0.0000 R=    0.0000 C=    0.0000
 XYZ=    5.3006   -6.4836    1.1443 Q=    0.4100 A=    0.0000 R=    0.0000 C=    0.0000
 XYZ=    4.5510   -6.8622    2.5449 Q=    0.4100 A=    0.0000 R=    0.0000 C=    0.0000
 XYZ=   -1.1926   -2.6914   -9.7602 Q=   -0.8200 A=    0.0000 R=    0.0000 C=    0.0000
 XYZ=   -1.1914   -3.5106  -10.3336 Q=    0.4100 A=    0.0000 R=    0.0000 C=    0.0000
 XYZ=   -1.2967   -2.9558   -8.8014 Q=    0.4100 A=    0.0000 R=    0.0000 C=    0.0000
 XYZ=   -5.9402    6.4375   -1.7448 Q=   -0.8200 A=    0.0000 R=    0.0000 C=    0.0000
 XYZ=   -5.0753    6.6001   -2.2197 Q=    0.4100 A=    0.0000 R=    0.0000 C=    0.0000
 XYZ=   -6.2018    7.2591   -1.2382 Q=    0.4100 A=    0.0000 R=    0.0000 C=    0.0000
 XYZ=    8.5270   -1.6879   -1.5111 Q=   -0.8200 A=    0.0000 R=    0.0000 C=    0.0000
 XYZ=    8.2635   -0.7851   -1.1710 Q=    0.4100 A=    0.0000 R=    0.0000 C=    0.0000
 XYZ=    9.1376   -2.1271   -0.8521 Q=    0.4100 A=    0.0000 R=    0.0000 C=    0.0000
 XYZ=   -0.8726   -6.0806   -7.5380 Q=   -0.8200 A=    0.0000 R=    0.0000 C=    0.0000
 XYZ=    0.0231   -6.0411   -7.0951 Q=    0.4100 A=    0.0000 R=    0.0000 C=    0.0000
 XYZ=   -1.5015   -6.6130   -6.9714 Q=    0.4100 A=    0.0000 R=    0.0000 C=    0.0000
 XYZ=    0.9478    4.0303    7.8058 Q=   -0.8200 A=    0.0000 R=    0.0000 C=    0.0000
 XYZ=    1.3395    4.3411    8.6718 Q=    0.4100 A=    0.0000 R=    0.0000 C=    0.0000
 XYZ=    1.0047    3.0333    7.7531 Q=    0.4100 A=    0.0000 R=    0.0000 C=    0.0000
 XYZ=   -5.2762   -4.2943    3.2226 Q=   -0.8200 A=    0.0000 R=    0.0000 C=    0.0000
 XYZ=   -5.8079   -4.1918    4.0633 Q=    0.4100 A=    0.0000 R=    0.0000 C=    0.0000
 XYZ=   -4.5587   -4.9767    3.3630 Q=    0.4100 A=    0.0000 R=    0.0000 C=    0.0000
 XYZ=   -6.7463    5.4623    3.2361 Q=   -0.8200 A=    0.0000 R=    0.0000 C=    0.0000
 XYZ=   -7.1785    5.2521    4.1131 Q=    0.4100 A=    0.0000 R=    0.0000 C=    0.0000
 XYZ=   -7.1728    4.9161    2.5151 Q=    0.4100 A=    0.0000 R=    0.0000 C=    0.0000
 XYZ=    7.1954   -0.4411   -5.3775 Q=   -0.8200 A=    0.0000 R=    0.0000 C=    0.0000
 XYZ=    7.6701    0.3280   -4.9494 Q=    0.4100 A=    0.0000 R=    0.0000 C=    0.0000
 XYZ=    7.7491   -1.2685   -5.2835 Q=    0.4100 A=    0.0000 R=    0.0000 C=    0.0000
 XYZ=    1.7737   -6.5544    4.9615 Q=   -0.8200 A=    0.0000 R=    0.0000 C=    0.0000
 XYZ=    1.2666   -7.3604    5.2667 Q=    0.4100 A=    0.0000 R=    0.0000 C=    0.0000
 XYZ=    1.6896   -5.8292    5.6449 Q=    0.4100 A=    0.0000 R=    0.0000 C=    0.0000
 XYZ=    5.5575    3.8444   -5.1032 Q=   -0.8200 A=    0.0000 R=    0.0000 C=    0.0000
 XYZ=    5.7559    4.8095   -5.2740 Q=    0.4100 A=    0.0000 R=    0.0000 C=    0.0000
 XYZ=    6.0959    3.2780   -5.7272 Q=    0.4100 A=    0.0000 R=    0.0000 C=    0.0000
 XYZ=    4.3057    6.3054   -0.1466 Q=   -0.8200 A=    0.0000 R=    0.0000 C=    0.0000
 XYZ=    3.3991    6.7272   -0.1333 Q=    0.4100 A=    0.0000 R=    0.0000 C=    0.0000
 XYZ=    4.9915    6.9963   -0.3755 Q=    0.4100 A=    0.0000 R=    0.0000 C=    0.0000
 XYZ=   -1.3891    3.8790    8.1072 Q=   -0.8200 A=    0.0000 R=    0.0000 C=    0.0000
 XYZ=   -0.5073    4.0548    7.6695 Q=    0.4100 A=    0.0000 R=    0.0000 C=    0.0000
 XYZ=   -1.5001    2.8955    8.2500 Q=    0.4100 A=    0.0000 R=    0.0000 C=    0.0000
 XYZ=    1.0164   -1.4725  -10.2455 Q=   -0.8200 A=    0.0000 R=    0.0000 C=    0.0000
 XYZ=    1.6576   -2.2214  -10.4135 Q=    0.4100 A=    0.0000 R=    0.0000 C=    0.0000
 XYZ=    0.2139   -1.8228   -9.7626 Q=    0.4100 A=    0.0000 R=    0.0000 C=    0.0000
 XYZ=    6.5466   -5.0619    2.9469 Q=   -0.8200 A=    0.0000 R=    0.0000 C=    0.0000
 XYZ=    5.9967   -4.8789    3.7619 Q=    0.4100 A=    0.0000 R=    0.0000 C=    0.0000
 XYZ=    6.1043   -5.7719    2.3990 Q=    0.4100 A=    0.0000 R=    0.0000 C=    0.0000
 XYZ=   -1.8302    8.3640    2.8156 Q=   -0.8200 A=    0.0000 R=    0.0000 C=    0.0000
 XYZ=   -2.3922    8.0710    3.5891 Q=    0.4100 A=    0.0000 R=    0.0000 C=    0.0000
 XYZ=   -2.4039    8.8376    2.1473 Q=    0.4100 A=    0.0000 R=    0.0000 C=    0.0000
 XYZ=   -3.1792    7.7612    4.6895 Q=   -0.8200 A=    0.0000 R=    0.0000 C=    0.0000
 XYZ=   -3.6674    6.9478    5.0057 Q=    0.4100 A=    0.0000 R=    0.0000 C=    0.0000
 XYZ=   -3.6709    8.5806    4.9843 Q=    0.4100 A=    0.0000 R=    0.0000 C=    0.0000
 XYZ=    7.8685    0.5580    4.0907 Q=   -0.8200 A=    0.0000 R=    0.0000 C=    0.0000
 XYZ=    7.4494    1.1671    3.4174 Q=    0.4100 A=    0.0000 R=    0.0000 C=    0.0000
 XYZ=    7.2348   -0.1844    4.3085 Q=    0.4100 A=    0.0000 R=    0.0000 C=    0.0000
 XYZ=   -3.4033    4.6372   -7.5660 Q=   -0.8200 A=    0.0000 R=    0.0000 C=    0.0000
 XYZ=   -2.7529    5.3380   -7.8592 Q=    0.4100 A=    0.0000 R=    0.0000 C=    0.0000
 XYZ=   -4.2301    4.6948   -8.1256 Q=    0.4100 A=    0.0000 R=    0.0000 C=    0.0000
 XYZ=   -3.4165    5.1804    7.5682 Q=   -0.8200 A=    0.0000 R=    0.0000 C=    0.0000
 XYZ=   -3.5987    5.5799    6.6697 Q=    0.4100 A=    0.0000 R=    0.0000 C=    0.0000
 XYZ=   -2.5308    4.7164    7.5533 Q=    0.4100 A=    0.0000 R=    0.0000 C=    0.0000
 XYZ=    0.8728    8.7532   -1.3152 Q=   -0.8200 A=    0.0000 R=    0.0000 C=    0.0000
 XYZ=    0.7351    8.5970   -2.2933 Q=    0.4100 A=    0.0000 R=    0.0000 C=    0.0000
 XYZ=    1.4750    8.0451   -0.9463 Q=    0.4100 A=    0.0000 R=    0.0000 C=    0.0000
 XYZ=    9.4440   -0.5155    1.7751 Q=   -0.8200 A=    0.0000 R=    0.0000 C=    0.0000
 XYZ=    9.5159   -0.5375    2.7723 Q=    0.4100 A=    0.0000 R=    0.0000 C=    0.0000
 XYZ=    8.4850   -0.6108    1.5080 Q=    0.4100 A=    0.0000 R=    0.0000 C=    0.0000
 XYZ=   -9.4646   -0.3995   -0.9304 Q=   -0.8200 A=    0.0000 R=    0.0000 C=    0.0000
 XYZ=   -9.4762    0.5894   -1.0786 Q=    0.4100 A=    0.0000 R=    0.0000 C=    0.0000
 XYZ=   -8.5181   -0.7150   -0.8611 Q=    0.4100 A=    0.0000 R=    0.0000 C=    0.0000
 XYZ=   -2.5422   -0.1969    9.0077 Q=   -0.8200 A=    0.0000 R=    0.0000 C=    0.0000
 XYZ=   -2.1300   -1.0585    8.7114 Q=    0.4100 A=    0.0000 R=    0.0000 C=    0.0000
 XYZ=   -3.4367   -0.3785    9.4162 Q=    0.4100 A=    0.0000 R=    0.0000 C=    0.0000
 XYZ=    6.8692   -0.9448   -7.7396 Q=   -0.8200 A=    0.0000 R=    0.0000 C=    0.0000
 XYZ=    7.0198   -0.7951   -6.7624 Q=    0.4100 A=    0.0000 R=    0.0000 C=    0.0000
 XYZ=    6.0607   -1.5192   -7.8680 Q=    0.4100 A=    0.0000 R=    0.0000 C=    0.0000
 XYZ=   -6.1962   -4.9476    1.1783 Q=   -0.8200 A=    0.0000 R=    0.0000 C=    0.0000
 XYZ=   -5.6665   -5.5808    0.6139 Q=    0.4100 A=    0.0000 R=    0.0000 C=    0.0000
 XYZ=   -5.8258   -4.9393    2.1072 Q=    0.4100 A=    0.0000 R=    0.0000 C=    0.0000
 XYZ=    4.7617   -2.2749    7.3712 Q=   -0.8200 A=    0.0000 R=    0.0000 C=    0.0000
 XYZ=    4.9017   -2.1054    8.3467 Q=    0.4100 A=    0.0000 R=    0.0000 C=    0.0000
 XYZ=    5.6476   -2.3099    6.9086 Q=    0.4100 A=    0.0000 R=    0.0000 C=    0.0000
 XYZ=   -0.8694    1.6530    9.0392 Q=   -0.8200 A=    0.0000 R=    0.0000 C=    0.0000
 XYZ=   -1.4274    0.8260    8.9702 Q=    0.4100 A=    0.0000 R=    0.0000 C=    0.0000
 XYZ=   -0.7003    1.8614   10.0026 Q=    0.4100 A=    0.0000 R=    0.0000 C=    0.0000
 XYZ=   -9.6920    0.8217    2.6477 Q=   -0.8200 A=    0.0000 R=    0.0000 C=    0.0000
 XYZ=   -8.7623    0.9515    2.9924 Q=    0.4100 A=    0.0000 R=    0.0000 C=    0.0000
 XYZ=   -9.7514   -0.0558    2.1716 Q=    0.4100 A=    0.0000 R=    0.0000 C=    0.0000
 XYZ=    4.3843   -2.4431  -10.0574 Q=   -0.8200 A=    0.0000 R=    0.0000 C=    0.0000
 XYZ=    4.4732   -2.1532   -9.1045 Q=    0.4100 A=    0.0000 R=    0.0000 C=    0.0000
 XYZ=    5.2552   -2.8190  -10.3741 Q=    0.4100 A=    0.0000 R=    0.0000 C=    0.0000
 XYZ=    7.1029   -6.7184   -2.8362 Q=   -0.8200 A=    0.0000 R=    0.0000 C=    0.0000
 XYZ=    6.2909   -6.4843   -3.3709 Q=    0.4100 A=    0.0000 R=    0.0000 C=    0.0000
 XYZ=    7.9179   -6.3665   -3.2966 Q=    0.4100 A=    0.0000 R=    0.0000 C=    0.0000
 XYZ=    4.6685   -6.0528   -7.8587 Q=   -0.8200 A=    0.0000 R=    0.0000 C=    0.0000
 XYZ=    5.2756   -6.0806   -8.6529 Q=    0.4100 A=    0.0000 R=    0.0000 C=    0.0000
 XYZ=    4.7861   -5.1828   -7.3797 Q=    0.4100 A=    0.0000 R=    0.0000 C=    0.0000
 XYZ=    0.5664    8.9823    3.1150 Q=   -0.8200 A=    0.0000 R=    0.0000 C=    0.0000
 XYZ=   -0.3381    8.7586    2.7519 Q=    0.4100 A=    0.0000 R=    0.0000 C=    0.0000
 XYZ=    0.5630    8.8728    4.1090 Q=    0.4100 A=    0.0000 R=    0.0000 C=    0.0000
 XYZ=   -3.0127    9.0698   -1.8967 Q=   -0.8200 A=    0.0000 R=    0.0000 C=    0.0000
 XYZ=   -3.7601    9.4401   -1.3451 Q=    0.4100 A=    0.0000 R=    0.0000 C=    0.0000
 XYZ=   -2.3470    8.6232   -1.2990 Q=    0.4100 A=    0.0000 R=    0.0000 C=    0.0000
 XYZ=   -3.6530   -3.6784    7.5066 Q=   -0.8200 A=    0.0000 R=    0.0000 C=    0.0000
 XYZ=   -3.0238   -3.0522    7.9672 Q=    0.4100 A=    0.0000 R=    0.0000 C=    0.0000
 XYZ=   -3.7841   -4.4937    8.0706 Q=    0.4100 A=    0.0000 R=    0.0000 C=    0.0000
 XYZ=    7.9792   -5.7571   -0.7701 Q=   -0.8200 A=    0.0000 R=    0.0000 C=    0.0000
 XYZ=    8.9019   -5.8491   -1.1445 Q=    0.4100 A=    0.0000 R=    0.0000 C=    0.0000
 XYZ=    7.3164   -6.1231   -1.4234 Q=    0.4100 A=    0.0000 R=    0.0000 C=    0.0000
 XYZ=   -2.4365    1.9217  -10.2389 Q=   -0.8200 A=    0.0000 R=    0.0000 C=    0.0000
 XYZ=   -2.2209    2.0671   -9.2733 Q=    0.4100 A=    0.0000 R=    0.0000 C=    0.0000
 XYZ=   -2.3824    0.9455  -10.4490 Q=    0.4100 A=    0.0000 R=    0.0000 C=    0.0000
 XYZ=    6.0295    1.1046   -8.0039 Q=   -0.8200 A=    0.0000 R=    0.0000 C=    0.0000
 XYZ=    6.5476    1.7352   -7.4260 Q=    0.4100 A=    0.0000 R=    0.0000 C=    0.0000
 XYZ=    6.4898    0.2171   -8.0249 Q=    0.4100 A=    0.0000 R=    0.0000 C=    0.0000
 XYZ=    2.7938    0.2382  -10.3441 Q=   -0.8200 A=    0.0000 R=    0.0000 C=    0.0000
 XYZ=    2.4114    1.1287  -10.5907 Q=    0.4100 A=    0.0000 R=    0.0000 C=    0.0000
 XYZ=    2.0585   -0.4378  -10.2933 Q=    0.4100 A=    0.0000 R=    0.0000 C=    0.0000
 XYZ=    9.2709    2.3965   -0.8851 Q=   -0.8200 A=    0.0000 R=    0.0000 C=    0.0000
 XYZ=    8.7331    1.6103   -0.5803 Q=    0.4100 A=    0.0000 R=    0.0000 C=    0.0000
 XYZ=    9.7608    2.7874   -0.1058 Q=    0.4100 A=    0.0000 R=    0.0000 C=    0.0000
 XYZ=   -3.6712    8.7342   -3.9691 Q=   -0.8200 A=    0.0000 R=    0.0000 C=    0.0000
 XYZ=   -3.3353    8.9700   -3.0572 Q=    0.4100 A=    0.0000 R=    0.0000 C=    0.0000
 XYZ=   -4.0855    7.8243   -3.9467 Q=    0.4100 A=    0.0000 R=    0.0000 C=    0.0000
 XYZ=   -4.8651   -6.4227   -0.3323 Q=   -0.8200 A=    0.0000 R=    0.0000 C=    0.0000
 XYZ=   -5.3294   -6.3739   -1.2167 Q=    0.4100 A=    0.0000 R=    0.0000 C=    0.0000
 XYZ=   -4.8020   -7.3773   -0.0412 Q=    0.4100 A=    0.0000 R=    0.0000 C=    0.0000
 XYZ=   -6.7593    7.6272    2.0006 Q=   -0.8200 A=    0.0000 R=    0.0000 C=    0.0000
 XYZ=   -6.8224    6.7467    2.4705 Q=    0.4100 A=    0.0000 R=    0.0000 C=    0.0000
 XYZ=   -6.6101    8.3533    2.6719 Q=    0.4100 A=    0.0000 R=    0.0000 C=    0.0000
 XYZ=   -2.1672   -0.5936  -10.5872 Q=   -0.8200 A=    0.0000 R=    0.0000 C=    0.0000
 XYZ=   -1.6552   -1.3558  -10.1911 Q=    0.4100 A=    0.0000 R=    0.0000 C=    0.0000
 XYZ=   -3.1457   -0.7973  -10.5556 Q=    0.4100 A=    0.0000 R=    0.0000 C=    0.0000
 XYZ=    2.2320    2.4645  -10.7302 Q=   -0.8200 A=    0.0000 R=    0.0000 C=    0.0000
 XYZ=    2.2786    2.3775   -9.7351 Q=    0.4100 A=    0.0000 R=    0.0000 C=    0.0000
 XYZ=    2.2479    3.4324  -10.9812 Q=    0.4100 A=    0.0000 R=    0.0000 C=    0.0000
 XYZ=   -2.3525   -7.4812   -6.4119 Q=   -0.8200 A=    0.0000 R=    0.0000 C=    0.0000
 XYZ=   -2.7948   -7.8311   -7.2378 Q=    0.4100 A=    0.0000 R=    0.0000 C=    0.0000
 XYZ=   -3.0497   -7.1588   -5.7717 Q=    0.4100 A=    0.0000 R=    0.0000 C=    0.0000
 XYZ=   -5.5973   -3.6270   -6.7831 Q=   -0.8200 A=    0.0000 R=    0.0000 C=    0.0000
 XYZ=   -5.5325   -4.4116   -7.3999 Q=    0.4100 A=    0.0000 R=    0.0000 C=    0.0000
 XYZ=   -6.0385   -2.8655   -7.2579 Q=    0.4100 A=    0.0000 R=    0.0000 C=    0.0000
 XYZ=   -9.2271    2.7195    0.9799 Q=   -0.8200 A=    0.0000 R=    0.0000 C=    0.0000
 XYZ=   -9.7943    2.5608    0.1716 Q=    0.4100 A=    0.0000 R=    0.0000 C=    0.0000
 XYZ=   -9.4266    2.0227    1.6689 Q=    0.4100 A=    0.0000 R=    0.0000 C=    0.0000
 XYZ=   -6.4533    3.1628   -7.4465 Q=   -0.8200 A=    0.0000 R=    0.0000 C=    0.0000
 XYZ=   -6.0462    3.8583   -8.0386 Q=    0.4100 A=    0.0000 R=    0.0000 C=    0.0000
 XYZ=   -6.1027    2.2616   -7.7010 Q=    0.4100 A=    0.0000 R=    0.0000 C=    0.0000
 XYZ=   -7.9675    4.7545    5.3163 Q=   -0.8200 A=    0.0000 R=    0.0000 C=    0.0000
 XYZ=   -7.4548    3.9073    5.4561 Q=    0.4100 A=    0.0000 R=    0.0000 C=    0.0000
 XYZ=   -7.5601    5.4849    5.8645 Q=    0.4100 A=    0.0000 R=    0.0000 C=    0.0000
 XYZ=   -6.6968   -3.9399    5.3805 Q=   -0.8200 A=    0.0000 R=    0.0000 C=    0.0000
 XYZ=   -7.4523   -3.4503    4.9451 Q=    0.4100 A=    0.0000 R=    0.0000 C=    0.0000
 XYZ=   -6.0576   -3.2812    5.7774 Q=    0.4100 A=    0.0000 R=    0.0000 C=    0.0000
 XYZ=   -6.0983   -6.4083   -2.8210 Q=   -0.8200 A=    0.0000 R=    0.0000 C=    0.0000
 XYZ=   -7.0703   -6.2153   -2.6865 Q=    0.4100 A=    0.0000 R=    0.0000 C=    0.0000
 XYZ=   -5.7316   -5.7988   -3.5240 Q=    0.4100 A=    0.0000 R=    0.0000 C=    0.0000
 XYZ=   -9.8353   -1.0389    1.4064 Q=   -0.8200 A=    0.0000 R=    0.0000 C=    0.0000
 XYZ=   -9.7150   -0.7870    0.4461 Q=    0.4100 A=    0.0000 R=    0.0000 C=    0.0000
 XYZ=   -8.9747   -1.3987    1.7669 Q=    0.4100 A=    0.0000 R=    0.0000 C=    0.0000
 XYZ=   -4.6129   -7.2255   -5.1951 Q=   -0.8200 A=    0.0000 R=    0.0000 C=    0.0000
 XYZ=   -4.8584   -6.2709   -5.0266 Q=    0.4100 A=    0.0000 R=    0.0000 C=    0.0000
 XYZ=   -4.8362   -7.7743   -4.3895 Q=    0.4100 A=    0.0000 R=    0.0000 C=    0.0000
 XYZ=    2.3180   -6.1167   -8.4109 Q=   -0.8200 A=    0.0000 R=    0.0000 C=    0.0000
 XYZ=    2.0508   -7.0778   -8.4812 Q=    0.4100 A=    0.0000 R=    0.0000 C=    0.0000
 XYZ=    3.3096   -6.0539   -8.2975 Q=    0.4100 A=    0.0000 R=    0.0000 C=    0.0000
 XYZ=    8.4658   -5.7179    1.5097 Q=   -0.8200 A=    0.0000 R=    0.0000 C=    0.0000
 XYZ=    7.7345   -5.3065    2.0538 Q=    0.4100 A=    0.0000 R=    0.0000 C=    0.0000
 XYZ=    8.1708   -5.7924    0.5570 Q=    0.4100 A=    0.0000 R=    0.0000 C=    0.0000
 XYZ=    0.6849   -4.8149    9.0579 Q=   -0.8200 A=    0.0000 R=    0.0000 C=    0.0000
 XYZ=    1.1436   -4.7716    8.1704 Q=    0.4100 A=    0.0000 R=    0.0000 C=    0.0000
 XYZ=    1.1279   -5.5064    9.6286 Q=    0.4100 A=    0.0000 R=    0.0000 C=    0.0000
 XYZ=    8.8308    2.9630    2.8898 Q=   -0.8200 A=    0.0000 R=    0.0000 C=    0.0000
 XYZ=    8.9711    2.6513    3.8296 Q=    0.4100 A=    0.0000 R=    0.0000 C=    0.0000
 XYZ=    7.9502    2.6274    2.5553 Q=    0.4100 A=    0.0000 R=    0.0000 C=    0.0000
 XYZ=    7.4804    5.3888    2.8533 Q=   -0.8200 A=    0.0000 R=    0.0000 C=    0.0000
 XYZ=    6.6474    4.8557    3.0014 Q=    0.4100 A=    0.0000 R=    0.0000 C=    0.0000
 XYZ=    8.2026    4.7895    2.5078 Q=    0.4100 A=    0.0000 R=    0.0000 C=    0.0000
 XYZ=   -8.3943   -2.5868    4.5698 Q=   -0.8200 A=    0.0000 R=    0.0000 C=    0.0000
 XYZ=   -8.3134   -2.1756    3.6618 Q=    0.4100 A=    0.0000 R=    0.0000 C=    0.0000
 XYZ=   -9.1827   -3.2017    4.5881 Q=    0.4100 A=    0.0000 R=    0.0000 C=    0.0000
 XYZ=    2.8170    2.5182    9.9401 Q=   -0.8200 A=    0.0000 R=    0.0000 C=    0.0000
 XYZ=    3.7899    2.3391    9.7934 Q=    0.4100 A=    0.0000 R=    0.0000 C=    0.0000
 XYZ=    2.2922    2.1609    9.1675 Q=    0.4100 A=    0.0000 R=    0.0000 C=    0.0000
 XYZ=   -0.2771   -9.4650    3.1208 Q=   -0.8200 A=    0.0000 R=    0.0000 C=    0.0000
 XYZ=   -0.1079  -10.1500    2.4121 Q=    0.4100 A=    0.0000 R=    0.0000 C=    0.0000
 XYZ=   -0.4116   -8.5705    2.6944 Q=    0.4100 A=    0.0000 R=    0.0000 C=    0.0000
 XYZ=    7.1225    2.6586   -6.5599 Q=   -0.8200 A=    0.0000 R=    0.0000 C=    0.0000
 XYZ=    7.6959    3.3527   -6.9952 Q=    0.4100 A=    0.0000 R=    0.0000 C=    0.0000
 XYZ=    7.6786    2.1114   -5.9343 Q=    0.4100 A=    0.0000 R=    0.0000 C=    0.0000
 XYZ=   -7.4752   -1.1630    6.2131 Q=   -0.8200 A=    0.0000 R=    0.0000 C=    0.0000
 XYZ=   -8.0068   -1.7720    5.6244 Q=    0.4100 A=    0.0000 R=    0.0000 C=    0.0000
 XYZ=   -6.7130   -1.6701    6.6157 Q=    0.4100 A=    0.0000 R=    0.0000 C=    0.0000
 XYZ=   -1.2950    8.0236    6.1979 Q=   -0.8200 A=    0.0000 R=    0.0000 C=    0.0000
 XYZ=   -2.2184    7.9583    5.8197 Q=    0.4100 A=    0.0000 R=    0.0000 C=    0.0000
 XYZ=   -1.2762    7.6043    7.1056 Q=    0.4100 A=    0.0000 R=    0.0000 C=    0.0000
 XYZ=    0.6154    8.6357    5.3726 Q=   -0.8200 A=    0.0000 R=    0.0000 C=    0.0000
 XYZ=    1.3168    7.9229    5.3725 Q=    0.4100 A=    0.0000 R=    0.0000 C=    0.0000
 XYZ=   -0.2527    8.2489    5.6840 Q=    0.4100 A=    0.0000 R=    0.0000 C=    0.0000
 XYZ=    7.8674    3.8446   -2.2473 Q=   -0.8200 A=    0.0000 R=    0.0000 C=    0.0000
 XYZ=    8.4175    3.2241   -1.6883 Q=    0.4100 A=    0.0000 R=    0.0000 C=    0.0000
 XYZ=    7.8051    4.7342   -1.7947 Q=    0.4100 A=    0.0000 R=    0.0000 C=    0.0000
 XYZ=    0.0026    4.6296  -10.2034 Q=   -0.8200 A=    0.0000 R=    0.0000 C=    0.0000
 XYZ=   -0.5564    4.1422  -10.8743 Q=    0.4100 A=    0.0000 R=    0.0000 C=    0.0000
 XYZ=   -0.0830    4.1846   -9.3120 Q=    0.4100 A=    0.0000 R=    0.0000 C=    0.0000
 XYZ=    8.4676    1.5516   -4.8922 Q=   -0.8200 A=    0.0000 R=    0.0000 C=    0.0000
 XYZ=    8.3309    2.3450   -4.2990 Q=    0.4100 A=    0.0000 R=    0.0000 C=    0.0000
 XYZ=    9.3464    1.1242   -4.6799 Q=    0.4100 A=    0.0000 R=    0.0000 C=    0.0000
 XYZ=   10.2647   -1.9253   -3.1361 Q=   -0.8200 A=    0.0000 R=    0.0000 C=    0.0000
 XYZ=    9.5342   -1.6871   -2.4960 Q=    0.4100 A=    0.0000 R=    0.0000 C=    0.0000
 XYZ=   11.0838   -2.1859   -2.6250 Q=    0.4100 A=    0.0000 R=    0.0000 C=    0.0000
 XYZ=   -9.7360    4.2832   -1.7039 Q=   -0.8200 A=    0.0000 R=    0.0000 C=    0.0000
 XYZ=   -8.7932    4.4129   -2.0111 Q=    0.4100 A=    0.0000 R=    0.0000 C=    0.0000
 XYZ=   -9.9737    4.9983   -1.0465 Q=    0.4100 A=    0.0000 R=    0.0000 C=    0.0000
 XYZ=   -5.2521    4.5149    8.6502 Q=   -0.8200 A=    0.0000 R=    0.0000 C=    0.0000
 XYZ=   -5.9386    5.2318    8.5288 Q=    0.4100 A=    0.0000 R=    0.0000 C=    0.0000
 XYZ=   -4.4628    4.7069    8.0669 Q=    0.4100 A=    0.0000 R=    0.0000 C=    0.0000
 XYZ=   -6.3991    8.2007   -0.2679 Q=   -0.8200 A=    0.0000 R=    0.0000 C=    0.0000
 XYZ=   -7.1287    8.8275   -0.5415 Q=    0.4100 A=    0.0000 R=    0.0000 C=    0.0000
 XYZ=   -6.4538    8.0352    0.7168 Q=    0.4100 A=    0.0000 R=    0.0000 C=    0.0000
 XYZ=   -4.9685   -7.2986    5.0895 Q=   -0.8200 A=    0.0000 R=    0.0000 C=    0.0000
 XYZ=   -4.2894   -6.6980    4.6674 Q=    0.4100 A=    0.0000 R=    0.0000 C=    0.0000
 XYZ=   -5.7614   -6.7586    5.3718 Q=    0.4100 A=    0.0000 R=    0.0000 C=    0.0000
 XYZ=    1.2313   -5.2453  -10.3428 Q=   -0.8200 A=    0.0000 R=    0.0000 C=    0.0000
 XYZ=    1.5875   -4.3251  -10.5054 Q=    0.4100 A=    0.0000 R=    0.0000 C=    0.0000
 XYZ=    1.6296   -5.6132   -9.5025 Q=    0.4100 A=    0.0000 R=    0.0000 C=    0.0000
 XYZ=   -1.9681   -6.3002   -9.5871 Q=   -0.8200 A=    0.0000 R=    0.0000 C=    0.0000
 XYZ=   -1.4850   -5.6611  -10.1857 Q=    0.4100 A=    0.0000 R=    0.0000 C=    0.0000
 XYZ=   -1.5166   -6.3278   -8.6953 Q=    0.4100 A=    0.0000 R=    0.0000 C=    0.0000
 XYZ=    7.0218   -1.7545    6.5864 Q=   -0.8200 A=    0.0000 R=    0.0000 C=    0.0000
 XYZ=    7.0298   -1.3212    7.4877 Q=    0.4100 A=    0.0000 R=    0.0000 C=    0.0000
 XYZ=    7.8769   -1.5492    6.1103 Q=    0.4100 A=    0.0000 R=    0.0000 C=    0.0000
 XYZ=    6.2226   -8.4733   -1.3995 Q=   -0.8200 A=    0.0000 R=    0.0000 C=    0.0000
 XYZ=    6.9758   -8.8938   -0.8935 Q=    0.4100 A=    0.0000 R=    0.0000 C=    0.0000
 XYZ=    6.5901   -7.8242   -2.0656 Q=    0.4100 A=    0.0000 R=    0.0000 C=    0.0000
 XYZ=   -2.6847   -8.9293    1.3766 Q=   -0.8200 A=    0.0000 R=    0.0000 C=    0.0000
 XYZ=   -3.5675   -8.7962    0.9260 Q=    0.4100 A=    0.0000 R=    0.0000 C=    0.0000
 XYZ=   -1.9808   -9.0994    0.6869 Q=    0.4100 A=    0.0000 R=    0.0000 C=    0.0000
 XYZ=   10.0453   -2.2806    0.2729 Q=   -0.8200 A=    0.0000 R=    0.0000 C=    0.0000
 XYZ=   10.1884   -3.0746    0.8638 Q=    0.4100 A=    0.0000 R=    0.0000 C=    0.0000
 XYZ=    9.7629   -1.4984    0.8283 Q=    0.4100 A=    0.0000 R=    0.0000 C=    0.0000
 XYZ=    2.4510   -3.4196  -10.9451 Q=   -0.8200 A=    0.0000 R=    0.0000 C=    0.0000
 XYZ=    3.2173   -3.0325  -10.4323 Q=    0.4100 A=    0.0000 R=    0.0000 C=    0.0000
 XYZ=    2.4723   -3.0779  -11.8847 Q=    0.4100 A=    0.0000 R=    0.0000 C=    0.0000
 XYZ=    6.1264    1.0540    7.8631 Q=   -0.8200 A=    0.0000 R=    0.0000 C=    0.0000
 XYZ=    6.8093    1.6031    7.3815 Q=    0.4100 A=    0.0000 R=    0.0000 C=    0.0000
 XYZ=    5.7076    1.6026    8.5868 Q=    0.4100 A=    0.0000 R=    0.0000 C=    0.0000
 XYZ=   -1.0503   -9.6461   -0.5904 Q=   -0.8200 A=    0.0000 R=    0.0000 C=    0.0000
 XYZ=   -0.5097  -10.1209    0.1041 Q=    0.4100 A=    0.0000 R=    0.0000 C=    0.0000
 XYZ=   -1.7042  -10.2839   -0.9974 Q=    0.4100 A=    0.0000 R=    0.0000 C=    0.0000
 XYZ=    8.8969   -2.1692   -5.0884 Q=   -0.8200 A=    0.0000 R=    0.0000 C=    0.0000
 XYZ=    9.4395   -2.1143   -4.2502 Q=    0.4100 A=    0.0000 R=    0.0000 C=    0.0000
 XYZ=    9.2542   -2.9004   -5.6695 Q=    0.4100 A=    0.0000 R=    0.0000 C=    0.0000
 XYZ=   -1.8920    4.7936   10.0445 Q=   -0.8200 A=    0.0000 R=    0.0000 C=    0.0000
 XYZ=   -2.0492    5.7618    9.8499 Q=    0.4100 A=    0.0000 R=    0.0000 C=    0.0000
 XYZ=   -1.6165    4.3254    9.2049 Q=    0.4100 A=    0.0000 R=    0.0000 C=    0.0000
 XYZ=   -3.1328    9.8229    1.2938 Q=   -0.8200 A=    0.0000 R=    0.0000 C=    0.0000
 XYZ=   -3.7396   10.2779    1.9455 Q=    0.4100 A=    0.0000 R=    0.0000 C=    0.0000
 XYZ=   -3.5811    9.7706    0.4014 Q=    0.4100 A=    0.0000 R=    0.0000 C=    0.0000
 XYZ=    4.0204   -8.1724   -7.1860 Q=   -0.8200 A=    0.0000 R=    0.0000 C=    0.0000
 XYZ=    4.2698   -7.2108   -7.3000 Q=    0.4100 A=    0.0000 R=    0.0000 C=    0.0000
 XYZ=    4.7453   -8.7512   -7.5597 Q=    0.4100 A=    0.0000 R=    0.0000 C=    0.0000
 XYZ=   -9.6933    2.3054   -3.8171 Q=   -0.8200 A=    0.0000 R=    0.0000 C=    0.0000
 XYZ=   -9.7471    2.0930   -2.8414 Q=    0.4100 A=    0.0000 R=    0.0000 C=    0.0000
 XYZ=  -10.4200    1.8209   -4.3042 Q=    0.4100 A=    0.0000 R=    0.0000 C=    0.0000
 XYZ=   -1.5324   -7.3724    6.3258 Q=   -0.8200 A=    0.0000 R=    0.0000 C=    0.0000
 XYZ=   -1.3687   -6.8974    7.1905 Q=    0.4100 A=    0.0000 R=    0.0000 C=    0.0000
 XYZ=   -2.3118   -7.9906    6.4276 Q=    0.4100 A=    0.0000 R=    0.0000 C=    0.0000
 XYZ=   -1.4159    9.5508   -4.9618 Q=   -0.8200 A=    0.0000 R=    0.0000 C=    0.0000
 XYZ=   -2.1952    9.1762   -4.4593 Q=    0.4100 A=    0.0000 R=    0.0000 C=    0.0000
 XYZ=   -1.2817   10.5076   -4.7036 Q=    0.4100 A=    0.0000 R=    0.0000 C=    0.0000
 XYZ=   -0.2868   -0.0835  -11.9472 Q=   -0.8200 A=    0.0000 R=    0.0000 C=    0.0000
 XYZ=    0.3767   -0.5783  -11.3859 Q=    0.4100 A=    0.0000 R=    0.0000 C=    0.0000
 XYZ=   -1.2117   -0.2838  -11.6241 Q=    0.4100 A=    0.0000 R=    0.0000 C=    0.0000
 XYZ=   -6.5570    2.4910    8.2186 Q=   -0.8200 A=    0.0000 R=    0.0000 C=    0.0000
 XYZ=   -6.7283    2.0414    9.0953 Q=    0.4100 A=    0.0000 R=    0.0000 C=    0.0000
 XYZ=   -5.9354    3.2623    8.3555 Q=    0.4100 A=    0.0000 R=    0.0000 C=    0.0000
 XYZ=    7.7352   -7.8487    1.9960 Q=   -0.8200 A=    0.0000 R=    0.0000 C=    0.0000
 XYZ=    8.1586   -6.9459    1.9200 Q=    0.4100 A=    0.0000 R=    0.0000 C=    0.0000
 XYZ=    6.7408   -7.7485    2.0310 Q=    0.4100 A=    0.0000 R=    0.0000 C=    0.0000
 XYZ=    0.3189   -8.3609    5.2349 Q=   -0.8200 A=    0.0000 R=    0.0000 C=    0.0000
 XYZ=   -0.4840   -8.0686    5.7546 Q=    0.4100 A=    0.0000 R=    0.0000 C=    0.0000
 XYZ=    0.0278   -8.9181    4.4572 Q=    0.4100 A=    0.0000 R=    0.0000 C=    0.0000
 XYZ=   -8.6578    3.0133   -6.9286 Q=   -0.8200 A=    0.0000 R=    0.0000 C=    0.0000
 XYZ=   -8.9152    3.5829   -6.1479 Q=    0.4100 A=    0.0000 R=    0.0000 C=    0.0000
 XYZ=   -7.7175    3.2220   -7.1977 Q=    0.4100 A=    0.0000 R=    0.0000 C=    0.0000
 XYZ=   -9.2005    4.2441   -4.8672 Q=   -0.8200 A=    0.0000 R=    0.0000 C=    0.0000
 XYZ=   -8.7796    4.8282   -4.1731 Q=    0.4100 A=    0.0000 R=    0.0000 C=    0.0000
 XYZ=   -9.3944    3.3455   -4.4735 Q=    0.4100 A=    0.0000 R=    0.0000 C=    0.0000
 XYZ=    6.1278    4.2019    6.9038 Q=   -0.8200 A=    0.0000 R=    0.0000 C=    0.0000
 XYZ=    6.6844    5.0279    6.8147 Q=    0.4100 A=    0.0000 R=    0.0000 C=    0.0000
 XYZ=    6.7231    3.3984    6.9130 Q=    0.4100 A=    0.0000 R=    0.0000 C=    0.0000
 XYZ=    9.1268    2.0308    5.2758 Q=   -0.8200 A=    0.0000 R=    0.0000 C=    0.0000
 XYZ=    8.5806    1.2718    4.9214 Q=    0.4100 A=    0.0000 R=    0.0000 C=    0.0000
 XYZ=   10.0231    1.6915    5.5614 Q=    0.4100 A=    0.0000 R=    0.0000 C=    0.0000
 XYZ=  -10.1142    1.9851   -1.3960 Q=   -0.8200 A=    0.0000 R=    0.0000 C=    0.0000
 XYZ=  -11.0664    1.6987   -1.2894 Q=    0.4100 A=    0.0000 R=    0.0000 C=    0.0000
 XYZ=  -10.0756    2.9778   -1.5102 Q=    0.4100 A=    0.0000 R=    0.0000 C=    0.0000
 XYZ=    1.0062   10.8175   -0.3596 Q=   -0.8200 A=    0.0000 R=    0.0000 C=    0.0000
 XYZ=    1.9808   10.9702   -0.5233 Q=    0.4100 A=    0.0000 R=    0.0000 C=    0.0000
 XYZ=    0.7299    9.9515   -0.7763 Q=    0.4100 A=    0.0000 R=    0.0000 C=    0.0000
 XYZ=   -1.2415   -9.7409   -6.1788 Q=   -0.8200 A=    0.0000 R=    0.0000 C=    0.0000
 XYZ=   -1.6181   -8.8159   -6.1269 Q=    0.4100 A=    0.0000 R=    0.0000 C=    0.0000
 XYZ=   -1.4579  -10.1393   -7.0702 Q=    0.4100 A=    0.0000 R=    0.0000 C=    0.0000
 XYZ=   -0.3483   -3.2882   10.3423 Q=   -0.8200 A=    0.0000 R=    0.0000 C=    0.0000
 XYZ=    0.1617   -3.9415    9.7829 Q=    0.4100 A=    0.0000 R=    0.0000 C=    0.0000
 XYZ=   -1.0848   -3.7644   10.8228 Q=    0.4100 A=    0.0000 R=    0.0000 C=    0.0000
 XYZ=   -1.3855   -6.3736    8.5626 Q=   -0.8200 A=    0.0000 R=    0.0000 C=    0.0000
 XYZ=   -0.7634   -5.6094    8.7334 Q=    0.4100 A=    0.0000 R=    0.0000 C=    0.0000
 XYZ=   -2.3303   -6.0653    8.6732 Q=    0.4100 A=    0.0000 R=    0.0000 C=    0.0000
 XYZ=   -8.2315    0.5988    7.6837 Q=   -0.8200 A=    0.0000 R=    0.0000 C=    0.0000
 XYZ=   -8.0075   -0.1850    7.1045 Q=    0.4100 A=    0.0000 R=    0.0000 C=    0.0000
 XYZ=   -7.4157    1.1630    7.8111 Q=    0.4100 A=    0.0000 R=    0.0000 C=    0.0000
 XYZ=   -4.6913   10.1199   -0.4874 Q=   -0.8200 A=    0.0000 R=    0.0000 C=    0.0000
 XYZ=   -5.1889   10.9709   -0.6554 Q=    0.4100 A=    0.0000 R=    0.0000 C=    0.0000
 XYZ=   -5.3418    9.3877   -0.2852 Q=    0.4100 A=    0.0000 R=    0.0000 C=    0.0000
 XYZ=    1.9620   -8.5848   -8.0665 Q=   -0.8200 A=    0.0000 R=    0.0000 C=    0.0000
 XYZ=    1.2129   -8.5648   -7.4044 Q=    0.4100 A=    0.0000 R=    0.0000 C=    0.0000
 XYZ=    2.8340   -8.4899   -7.5863 Q=    0.4100 A=    0.0000 R=    0.0000 C=    0.0000
 XYZ=   -6.7541    6.5019    6.1970 Q=   -0.8200 A=    0.0000 R=    0.0000 C=    0.0000
 XYZ=   -6.8118    7.4732    5.9660 Q=    0.4100 A=    0.0000 R=    0.0000 C=    0.0000
 XYZ=   -6.9270    6.3809    7.1745 Q=    0.4100 A=    0.0000 R=    0.0000 C=    0.0000
 XYZ=    7.3028   -4.4139   -7.7630 Q=   -0.8200 A=    0.0000 R=    0.0000 C=    0.0000
 XYZ=    7.9643   -4.8992   -7.1912 Q=    0.4100 A=    0.0000 R=    0.0000 C=    0.0000
 XYZ=    7.0933   -4.9647   -8.5710 Q=    0.4100 A=    0.0000 R=    0.0000 C=    0.0000
 XYZ=    7.7679   -2.6290   -9.1754 Q=   -0.8200 A=    0.0000 R=    0.0000 C=    0.0000
 XYZ=    7.3487   -1.8142   -8.7750 Q=    0.4100 A=    0.0000 R=    0.0000 C=    0.0000
 XYZ=    7.8364   -3.3445   -8.4800 Q=    0.4100 A=    0.0000 R=    0.0000 C=    0.0000
 XYZ=    1.1415   10.9760    1.9913 Q=   -0.8200 A=    0.0000 R=    0.0000 C=    0.0000
 XYZ=    1.0050   10.0992    2.4524 Q=    0.4100 A=    0.0000 R=    0.0000 C=    0.0000
 XYZ=    1.1093   10.8404    1.0011 Q=    0.4100 A=    0.0000 R=    0.0000 C=    0.0000
 XYZ=   -5.4640   -8.5255   -3.1799 Q=   -0.8200 A=    0.0000 R=    0.0000 C=    0.0000
 XYZ=   -5.7755   -7.6268   -2.8714 Q=    0.4100 A=    0.0000 R=    0.0000 C=    0.0000
 XYZ=   -6.2502   -9.1362   -3.2748 Q=    0.4100 A=    0.0000 R=    0.0000 C=    0.0000
 XYZ=   -0.8800   -4.7191  -10.9140 Q=   -0.8200 A=    0.0000 R=    0.0000 C=    0.0000
 XYZ=    0.0118   -5.1388  -10.7452 Q=    0.4100 A=    0.0000 R=    0.0000 C=    0.0000
 XYZ=   -0.9763   -4.5220  -11.8897 Q=    0.4100 A=    0.0000 R=    0.0000 C=    0.0000
 XYZ=   -4.5769    2.7603  -10.6805 Q=   -0.8200 A=    0.0000 R=    0.0000 C=    0.0000
 XYZ=   -5.1687    1.9558  -10.7312 Q=    0.4100 A=    0.0000 R=    0.0000 C=    0.0000
 XYZ=   -3.6640    2.4841  -10.3796 Q=    0.4100 A=    0.0000 R=    0.0000 C=    0.0000
 XYZ=   -3.3148    7.0082    9.2219 Q=   -0.8200 A=    0.0000 R=    0.0000 C=    0.0000
 XYZ=   -3.3208    6.1669    8.6814 Q=    0.4100 A=    0.0000 R=    0.0000 C=    0.0000
 XYZ=   -4.2438    7.2128    9.5303 Q=    0.4100 A=    0.0000 R=    0.0000 C=    0.0000
 XYZ=   -7.9079   -6.7773    1.5921 Q=   -0.8200 A=    0.0000 R=    0.0000 C=    0.0000
 XYZ=   -8.4694   -7.0989    0.8296 Q=    0.4100 A=    0.0000 R=    0.0000 C=    0.0000
 XYZ=   -7.3960   -5.9659    1.3101 Q=    0.4100 A=    0.0000 R=    0.0000 C=    0.0000
 XYZ=   -5.4009    4.4734   -9.0379 Q=   -0.8200 A=    0.0000 R=    0.0000 C=    0.0000
 XYZ=   -5.8263    5.1903   -9.5902 Q=    0.4100 A=    0.0000 R=    0.0000 C=    0.0000
 XYZ=   -5.0815    3.7378   -9.6353 Q=    0.4100 A=    0.0000 R=    0.0000 C=    0.0000
 XYZ=    9.1972    4.6612   -4.0741 Q=   -0.8200 A=    0.0000 R=    0.0000 C=    0.0000
 XYZ=    8.6534    4.3217   -3.3066 Q=    0.4100 A=    0.0000 R=    0.0000 C=    0.0000
 XYZ=   10.1647    4.4720   -3.9065 Q=    0.4100 A=    0.0000 R=    0.0000 C=    0.0000
 XYZ=    7.7252    5.9078   -1.1375 Q=   -0.8200 A=    0.0000 R=    0.0000 C=    0.0000
 XYZ=    7.1079    6.3291   -1.8018 Q=    0.4100 A=    0.0000 R=    0.0000 C=    0.0000
 XYZ=    7.6192    6.3587   -0.2513 Q=    0.4100 A=    0.0000 R=    0.0000 C=    0.0000
 XYZ=  -11.4475   -0.6686   -2.0467 Q=   -0.8200 A=    0.0000 R=    0.0000 C=    0.0000
 XYZ=  -11.9924    0.1101   -1.7357 Q=    0.4100 A=    0.0000 R=    0.0000 C=    0.0000
 XYZ=  -10.4942   -0.5383   -1.7744 Q=    0.4100 A=    0.0000 R=    0.0000 C=    0.0000
 XYZ=   10.1414    0.2847   -3.9391 Q=   -0.8200 A=    0.0000 R=    0.0000 C=    0.0000
 XYZ=   10.8036    0.8070   -3.4016 Q=    0.4100 A=    0.0000 R=    0.0000 C=    0.0000
 XYZ=   10.2626   -0.6916   -3.7598 Q=    0.4100 A=    0.0000 R=    0.0000 C=    0.0000
 XYZ=    7.3029    7.0035    1.0553 Q=   -0.8200 A=    0.0000 R=    0.0000 C=    0.0000
 XYZ=    7.4474    7.9511    1.3406 Q=    0.4100 A=    0.0000 R=    0.0000 C=    0.0000
 XYZ=    7.2446    6.4174    1.8635 Q=    0.4100 A=    0.0000 R=    0.0000 C=    0.0000
 XYZ=    8.9808   -5.7979   -3.8804 Q=   -0.8200 A=    0.0000 R=    0.0000 C=    0.0000
 XYZ=    8.9752   -5.3261   -4.7621 Q=    0.4100 A=    0.0000 R=    0.0000 C=    0.0000
 XYZ=    9.4696   -6.6657   -3.9699 Q=    0.4100 A=    0.0000 R=    0.0000 C=    0.0000
 XYZ=   11.2054    1.5915   -2.2284 Q=   -0.8200 A=    0.0000 R=    0.0000 C=    0.0000
 XYZ=   10.2893    1.7721   -1.8704 Q=    0.4100 A=    0.0000 R=    0.0000 C=    0.0000
 XYZ=   11.7487    1.1217   -1.5325 Q=    0.4100 A=    0.0000 R=    0.0000 C=    0.0000
 XYZ=    7.5143   -0.6713    8.7239 Q=   -0.8200 A=    0.0000 R=    0.0000 C=    0.0000
 XYZ=    7.0333    0.0578    8.2370 Q=    0.4100 A=    0.0000 R=    0.0000 C=    0.0000
 XYZ=    8.3177   -0.2919    9.1828 Q=    0.4100 A=    0.0000 R=    0.0000 C=    0.0000
 XYZ=   10.5418   -4.2832    1.5102 Q=   -0.8200 A=    0.0000 R=    0.0000 C=    0.0000
 XYZ=    9.7427   -4.8599    1.6801 Q=    0.4100 A=    0.0000 R=    0.0000 C=    0.0000
 XYZ=   11.1946   -4.7785    0.9370 Q=    0.4100 A=    0.0000 R=    0.0000 C=    0.0000
 XYZ=   -6.8783   -0.2041   -9.0542 Q=   -0.8200 A=    0.0000 R=    0.0000 C=    0.0000
 XYZ=   -7.6193    0.3804   -8.7236 Q=    0.4100 A=    0.0000 R=    0.0000 C=    0.0000
 XYZ=   -7.0700   -1.1550   -8.8110 Q=    0.4100 A=    0.0000 R=    0.0000 C=    0.0000
 XYZ=    7.7370    2.4824    6.9175 Q=   -0.8200 A=    0.0000 R=    0.0000 C=    0.0000
 XYZ=    8.3393    2.3745    6.1265 Q=    0.4100 A=    0.0000 R=    0.0000 C=    0.0000
 XYZ=    8.2813    2.7277    7.7198 Q=    0.4100 A=    0.0000 R=    0.0000 C=    0.0000
 XYZ=    1.6788    4.5706   10.1122 Q=   -0.8200 A=    0.0000 R=    0.0000 C=    0.0000
 XYZ=    0.8933    4.5153   10.7286 Q=    0.4100 A=    0.0000 R=    0.0000 C=    0.0000
 XYZ=    2.1503    3.6889   10.0932 Q=    0.4100 A=    0.0000 R=    0.0000 C=    0.0000
 XYZ=   11.2471    0.9520    1.2107 Q=   -0.8200 A=    0.0000 R=    0.0000 C=    0.0000
 XYZ=   10.4969    0.3336    1.4448 Q=    0.4100 A=    0.0000 R=    0.0000 C=    0.0000
 XYZ=   10.9020    1.8890    1.1565 Q=    0.4100 A=    0.0000 R=    0.0000 C=    0.0000
 XYZ=    5.1217    2.4563    9.4063 Q=   -0.8200 A=    0.0000 R=    0.0000 C=    0.0000
 XYZ=    5.6350    2.3311   10.2554 Q=    0.4100 A=    0.0000 R=    0.0000 C=    0.0000
 XYZ=    5.1050    3.4271    9.1670 Q=    0.4100 A=    0.0000 R=    0.0000 C=    0.0000
 XYZ=    4.1973   -1.0236  -12.1338 Q=   -0.8200 A=    0.0000 R=    0.0000 C=    0.0000
 XYZ=    4.0104   -0.1175  -11.7544 Q=    0.4100 A=    0.0000 R=    0.0000 C=    0.0000
 XYZ=    4.3461   -1.6730  -11.3881 Q=    0.4100 A=    0.0000 R=    0.0000 C=    0.0000
 XYZ=    7.3849    5.5814   -5.6619 Q=   -0.8200 A=    0.0000 R=    0.0000 C=    0.0000
 XYZ=    7.9181    5.2400   -4.8878 Q=    0.4100 A=    0.0000 R=    0.0000 C=    0.0000
 XYZ=    7.7212    5.1660   -6.5072 Q=    0.4100 A=    0.0000 R=    0.0000 C=    0.0000
 XYZ=   -5.2864   -7.5553   -7.4800 Q=   -0.8200 A=    0.0000 R=    0.0000 C=    0.0000
 XYZ=   -4.4516   -7.8060   -7.9702 Q=    0.4100 A=    0.0000 R=    0.0000 C=    0.0000
 XYZ=   -5.0949   -7.5049   -6.4998 Q=    0.4100 A=    0.0000 R=    0.0000 C=    0.0000
 XYZ=   -4.7607   -8.7861    0.2635 Q=   -0.8200 A=    0.0000 R=    0.0000 C=    0.0000
 XYZ=   -5.4753   -8.7793    0.9630 Q=    0.4100 A=    0.0000 R=    0.0000 C=    0.0000
 XYZ=   -4.9605   -9.4976   -0.4102 Q=    0.4100 A=    0.0000 R=    0.0000 C=    0.0000
 XYZ=   -1.3820    3.4510  -11.7739 Q=   -0.8200 A=    0.0000 R=    0.0000 C=    0.0000
 XYZ=   -1.9021    2.8748  -11.1435 Q=    0.4100 A=    0.0000 R=    0.0000 C=    0.0000
 XYZ=   -0.6244    2.9241  -12.1592 Q=    0.4100 A=    0.0000 R=    0.0000 C=    0.0000
 XYZ=   -4.0184   -5.3227  -10.0774 Q=   -0.8200 A=    0.0000 R=    0.0000 C=    0.0000
 XYZ=   -3.1711   -5.8131   -9.8734 Q=    0.4100 A=    0.0000 R=    0.0000 C=    0.0000
 XYZ=   -3.8089   -4.5021  -10.6091 Q=    0.4100 A=    0.0000 R=    0.0000 C=    0.0000
 XYZ=    0.4337    2.1030  -12.2770 Q=   -0.8200 A=    0.0000 R=    0.0000 C=    0.0000
 XYZ=    1.2240    2.3220  -11.7048 Q=    0.4100 A=    0.0000 R=    0.0000 C=    0.0000
 XYZ=    0.1048    1.1853  -12.0539 Q=    0.4100 A=    0.0000 R=    0.0000 C=    0.0000
 XYZ=    5.4410    4.8413    9.0690 Q=   -0.8200 A=    0.0000 R=    0.0000 C=    0.0000
 XYZ=    6.2209    5.2956    9.4995 Q=    0.4100 A=    0.0000 R=    0.0000 C=    0.0000
 XYZ=    5.6569    4.6430    8.1129 Q=    0.4100 A=    0.0000 R=    0.0000 C=    0.0000
 XYZ=   -4.6114   10.2666   -5.3435 Q=   -0.8200 A=    0.0000 R=    0.0000 C=    0.0000
 XYZ=   -4.2909    9.5047   -4.7806 Q=    0.4100 A=    0.0000 R=    0.0000 C=    0.0000
 XYZ=   -3.8782   10.5587   -5.9577 Q=    0.4100 A=    0.0000 R=    0.0000 C=    0.0000
 XYZ=   -0.1589  -11.1086   -4.5088 Q=   -0.8200 A=    0.0000 R=    0.0000 C=    0.0000
 XYZ=    0.2595  -10.4657   -3.8672 Q=    0.4100 A=    0.0000 R=    0.0000 C=    0.0000
 XYZ=   -0.6056  -10.6011   -5.2456 Q=    0.4100 A=    0.0000 R=    0.0000 C=    0.0000
 XYZ=   -7.2262   -6.2289    5.7039 Q=   -0.8200 A=    0.0000 R=    0.0000 C=    0.0000
 XYZ=   -7.8449   -6.4753    4.9578 Q=    0.4100 A=    0.0000 R=    0.0000 C=    0.0000
 XYZ=   -7.0110   -5.2538    5.6502 Q=    0.4100 A=    0.0000 R=    0.0000 C=    0.0000
 XYZ=   -5.6183   -5.4150   -8.4357 Q=   -0.8200 A=    0.0000 R=    0.0000 C=    0.0000
 XYZ=   -4.9676   -5.2445   -9.1756 Q=    0.4100 A=    0.0000 R=    0.0000 C=    0.0000
 XYZ=   -5.4628   -6.3282   -8.0589 Q=    0.4100 A=    0.0000 R=    0.0000 C=    0.0000
 XYZ=   11.8486   -1.6179   -0.9906 Q=   -0.8200 A=    0.0000 R=    0.0000 C=    0.0000
 XYZ=   12.6560   -1.9671   -0.5150 Q=    0.4100 A=    0.0000 R=    0.0000 C=    0.0000
 XYZ=   11.0236   -1.9779   -0.5550 Q=    0.4100 A=    0.0000 R=    0.0000 C=    0.0000
 XYZ=   10.0149   -6.0610   -1.7377 Q=   -0.8200 A=    0.0000 R=    0.0000 C=    0.0000
 XYZ=    9.7246   -5.7232   -2.6332 Q=    0.4100 A=    0.0000 R=    0.0000 C=    0.0000
 XYZ=    9.9430   -7.0582   -1.7184 Q=    0.4100 A=    0.0000 R=    0.0000 C=    0.0000
 XYZ=    0.5933   -1.7698   11.6810 Q=   -0.8200 A=    0.0000 R=    0.0000 C=    0.0000
 XYZ=    0.2737   -2.4642   11.0362 Q=    0.4100 A=    0.0000 R=    0.0000 C=    0.0000
 XYZ=   -0.1897   -1.2586   12.0355 Q=    0.4100 A=    0.0000 R=    0.0000 C=    0.0000
 XYZ=   -4.1804    9.6766    5.1383 Q=   -0.8200 A=    0.0000 R=    0.0000 C=    0.0000
 XYZ=   -3.4970   10.2433    5.5988 Q=    0.4100 A=    0.0000 R=    0.0000 C=    0.0000
 XYZ=   -4.3068   10.0023    4.2013 Q=    0.4100 A=    0.0000 R=    0.0000 C=    0.0000
 XYZ=    2.1354    4.7583  -11.2709 Q=   -0.8200 A=    0.0000 R=    0.0000 C=    0.0000
 XYZ=    2.8934    5.2513  -10.8437 Q=    0.4100 A=    0.0000 R=    0.0000 C=    0.0000
 XYZ=    1.3484    4.7579  -10.6540 Q=    0.4100 A=    0.0000 R=    0.0000 C=    0.0000
 XYZ=   -4.3689   -1.0425  -11.0024 Q=   -0.8200 A=    0.0000 R=    0.0000 C=    0.0000
 XYZ=   -5.0337   -0.2983  -11.0678 Q=    0.4100 A=    0.0000 R=    0.0000 C=    0.0000
 XYZ=   -4.8189   -1.9106  -11.2120 Q=    0.4100 A=    0.0000 R=    0.0000 C=    0.0000
 XYZ=   -8.3251   -5.7822   -2.8388 Q=   -0.8200 A=    0.0000 R=    0.0000 C=    0.0000
 XYZ=   -9.0481   -5.0921   -2.8071 Q=    0.4100 A=    0.0000 R=    0.0000 C=    0.0000
 XYZ=   -8.6863   -6.6253   -3.2373 Q=    0.4100 A=    0.0000 R=    0.0000 C=    0.0000
 XYZ=   -8.7468    1.0585   -8.4520 Q=   -0.8200 A=    0.0000 R=    0.0000 C=    0.0000
 XYZ=   -8.9971    1.5003   -9.3135 Q=    0.4100 A=    0.0000 R=    0.0000 C=    0.0000
 XYZ=   -8.7519    1.7358   -7.7163 Q=    0.4100 A=    0.0000 R=    0.0000 C=    0.0000
 XYZ=   10.4325    3.1409    1.1517 Q=   -0.8200 A=    0.0000 R=    0.0000 C=    0.0000
 XYZ=    9.8057    3.1307    1.9309 Q=    0.4100 A=    0.0000 R=    0.0000 C=    0.0000
 XYZ=   11.1132    3.8620    1.2809 Q=    0.4100 A=    0.0000 R=    0.0000 C=    0.0000
 XYZ=   -4.2225    3.9214   10.7783 Q=   -0.8200 A=    0.0000 R=    0.0000 C=    0.0000
 XYZ=   -3.2901    4.2769   10.8446 Q=    0.4100 A=    0.0000 R=    0.0000 C=    0.0000
 XYZ=   -4.6008    4.1436    9.8796 Q=    0.4100 A=    0.0000 R=    0.0000 C=    0.0000
 XYZ=   -0.0054  -10.8723    1.1968 Q=   -0.8200 A=    0.0000 R=    0.0000 C=    0.0000
 XYZ=    0.9502  -11.1669    1.1866 Q=    0.4100 A=    0.0000 R=    0.0000 C=    0.0000
 XYZ=   -0.5662  -11.5431    0.7115 Q=    0.4100 A=    0.0000 R=    0.0000 C=    0.0000
 XYZ=  -11.7786    1.2732    3.8413 Q=   -0.8200 A=    0.0000 R=    0.0000 C=    0.0000
 XYZ=  -11.6798    2.1553    4.3018 Q=    0.4100 A=    0.0000 R=    0.0000 C=    0.0000
 XYZ=  -10.9372    1.0605    3.3444 Q=    0.4100 A=    0.0000 R=    0.0000 C=    0.0000
 XYZ=   -4.6860   10.6115    2.8901 Q=   -0.8200 A=    0.0000 R=    0.0000 C=    0.0000
 XYZ=   -5.3986   10.1610    2.3523 Q=    0.4100 A=    0.0000 R=    0.0000 C=    0.0000
 XYZ=   -4.9822   11.5367    3.1273 Q=    0.4100 A=    0.0000 R=    0.0000 C=    0.0000
 XYZ=  -10.3194    5.1199    5.4331 Q=   -0.8200 A=    0.0000 R=    0.0000 C=    0.0000
 XYZ=  -10.6123    6.0319    5.1459 Q=    0.4100 A=    0.0000 R=    0.0000 C=    0.0000
 XYZ=   -9.3235    5.0549    5.3715 Q=    0.4100 A=    0.0000 R=    0.0000 C=    0.0000
 XYZ=   -2.0934   11.9670    0.9338 Q=   -0.8200 A=    0.0000 R=    0.0000 C=    0.0000
 XYZ=   -2.5699   11.0943    1.0411 Q=    0.4100 A=    0.0000 R=    0.0000 C=    0.0000
 XYZ=   -2.7463   12.6710    0.6544 Q=    0.4100 A=    0.0000 R=    0.0000 C=    0.0000
 XYZ=    1.8359    1.6729   11.9491 Q=   -0.8200 A=    0.0000 R=    0.0000 C=    0.0000
 XYZ=    2.1752    1.9192   11.0412 Q=    0.4100 A=    0.0000 R=    0.0000 C=    0.0000
 XYZ=    2.1287    0.7434   12.1735 Q=    0.4100 A=    0.0000 R=    0.0000 C=    0.0000
 XYZ=   -3.1889   -8.2003   -8.4687 Q=   -0.8200 A=    0.0000 R=    0.0000 C=    0.0000
 XYZ=   -2.6432   -7.5795   -9.0316 Q=    0.4100 A=    0.0000 R=    0.0000 C=    0.0000
 XYZ=   -2.8338   -9.1308   -8.5585 Q=    0.4100 A=    0.0000 R=    0.0000 C=    0.0000
 XYZ=   -3.7794   -5.7265    8.7684 Q=   -0.8200 A=    0.0000 R=    0.0000 C=    0.0000
 XYZ=   -4.3428   -6.5072    8.4979 Q=    0.4100 A=    0.0000 R=    0.0000 C=    0.0000
 XYZ=   -3.5725   -5.7872    9.7449 Q=    0.4100 A=    0.0000 R=    0.0000 C=    0.0000
 XYZ=   -6.6160    8.8689    5.7059 Q=   -0.8200 A=    0.0000 R=    0.0000 C=    0.0000
 XYZ=   -6.9911    9.6776    6.1591 Q=    0.4100 A=    0.0000 R=    0.0000 C=    0.0000
 XYZ=   -5.6631    9.0394    5.4548 Q=    0.4100 A=    0.0000 R=    0.0000 C=    0.0000
 XYZ=    8.1603   -9.1589   -0.0484 Q=   -0.8200 A=    0.0000 R=    0.0000 C=    0.0000
 XYZ=    7.8422   -8.5971    0.7152 Q=    0.4100 A=    0.0000 R=    0.0000 C=    0.0000
 XYZ=    8.8343   -9.8196    0.2820 Q=    0.4100 A=    0.0000 R=    0.0000 C=    0.0000
 XYZ=   -7.5042   -2.2278   -8.5931 Q=   -0.8200 A=    0.0000 R=    0.0000 C=    0.0000
 XYZ=   -8.4611   -1.9878   -8.7566 Q=    0.4100 A=    0.0000 R=    0.0000 C=    0.0000
 XYZ=   -7.3214   -3.1391   -8.9620 Q=    0.4100 A=    0.0000 R=    0.0000 C=    0.0000
 XYZ=   -0.3539    2.1888   11.2602 Q=   -0.8200 A=    0.0000 R=    0.0000 C=    0.0000
 XYZ=    0.4819    1.7518   11.5928 Q=    0.4100 A=    0.0000 R=    0.0000 C=    0.0000
 XYZ=   -0.2573    3.1823   11.3205 Q=    0.4100 A=    0.0000 R=    0.0000 C=    0.0000
 XYZ=   -2.4585  -10.4018    3.1780 Q=   -0.8200 A=    0.0000 R=    0.0000 C=    0.0000
 XYZ=   -1.5702  -10.0240    3.4393 Q=    0.4100 A=    0.0000 R=    0.0000 C=    0.0000
 XYZ=   -2.7831   -9.9469    2.3487 Q=    0.4100 A=    0.0000 R=    0.0000 C=    0.0000
 XYZ=    5.7753   -1.7976    9.8712 Q=   -0.8200 A=    0.0000 R=    0.0000 C=    0.0000
 XYZ=    6.4331   -1.1929    9.4221 Q=    0.4100 A=    0.0000 R=    0.0000 C=    0.0000
 XYZ=    6.2663   -2.4982   10.3890 Q=    0.4100 A=    0.0000 R=    0.0000 C=    0.0000
 XYZ=   -3.5720   -8.5329    6.7830 Q=   -0.8200 A=    0.0000 R=    0.0000 C=    0.0000
 XYZ=   -3.9872   -8.1795    5.9447 Q=    0.4100 A=    0.0000 R=    0.0000 C=    0.0000
 XYZ=   -4.1386   -8.2809    7.5675 Q=    0.4100 A=    0.0000 R=    0.0000 C=    0.0000
 XYZ=  -11.7282   -2.4066    1.1491 Q=   -0.8200 A=    0.0000 R=    0.0000 C=    0.0000
 XYZ=  -10.9311   -1.8387    1.3545 Q=    0.4100 A=    0.0000 R=    0.0000 C=    0.0000
 XYZ=  -11.6328   -3.2920    1.6043 Q=    0.4100 A=    0.0000 R=    0.0000 C=    0.0000
 XYZ=    0.3445   10.6868    6.4820 Q=   -0.8200 A=    0.0000 R=    0.0000 C=    0.0000
 XYZ=    0.5229    9.8491    5.9657 Q=    0.4100 A=    0.0000 R=    0.0000 C=    0.0000
 XYZ=    0.0293   11.4020    5.8582 Q=    0.4100 A=    0.0000 R=    0.0000 C=    0.0000
 XYZ=    8.9608   -5.1776   -6.2531 Q=   -0.8200 A=    0.0000 R=    0.0000 C=    0.0000
 XYZ=    9.7203   -4.6735   -6.6643 Q=    0.4100 A=    0.0000 R=    0.0000 C=    0.0000
 XYZ=    9.0886   -6.1573   -6.4077 Q=    0.4100 A=    0.0000 R=    0.0000 C=    0.0000
 XYZ=   -5.9714    0.7389  -11.0012 Q=   -0.8200 A=    0.0000 R=    0.0000 C=    0.0000
 XYZ=   -6.3889    0.3068  -10.2018 Q=    0.4100 A=    0.0000 R=    0.0000 C=    0.0000
 XYZ=   -6.6058    0.6952  -11.7730 Q=    0.4100 A=    0.0000 R=    0.0000 C=    0.0000
 XYZ=    6.3156   -5.5011   -9.5676 Q=   -0.8200 A=    0.0000 R=    0.0000 C=    0.0000
 XYZ=    6.5007   -6.2976  -10.1433 Q=    0.4100 A=    0.0000 R=    0.0000 C=    0.0000
 XYZ=    6.1171   -4.7103  -10.1466 Q=    0.4100 A=    0.0000 R=    0.0000 C=    0.0000
 XYZ=   -4.8152  -10.2390   -1.7900 Q=   -0.8200 A=    0.0000 R=    0.0000 C=    0.0000
 XYZ=   -5.5048  -10.9230   -2.0281 Q=    0.4100 A=    0.0000 R=    0.0000 C=    0.0000
 XYZ=   -4.8357   -9.4975   -2.4607 Q=    0.4100 A=    0.0000 R=    0.0000 C=    0.0000
[...]
    38  H    0.000000   0.000000   0.000000   0.000000   0.000000  -0.000001
    39  O    0.001179   0.000081   0.000000   0.000000   0.000000  -0.081929
    40  H   -0.000048  -0.000002   0.000000   0.000000   0.000000   0.000115
    41  H   -0.000029  -0.000001   0.000000   0.000000   0.000000  -0.000394
    42  O    0.000000   0.000000   0.000000   0.000000   0.000000   0.000000
    43  H    0.000000   0.000000   0.000000   0.000000   0.000000   0.000000
    44  H    0.000000   0.000000   0.000000   0.000000   0.000000   0.000000
    45  O    0.011343   0.004169   0.000000   0.000000   0.000000   0.000837
    46  H    0.001296   0.000019   0.000000   0.000000   0.000000  -0.000817
    47  H   -0.002067  -0.000006   0.000000   0.000000   0.000000   0.000097
    48  O   -0.000440   0.000026   0.000000   0.000000   0.000000  -0.002972
    49  H   -0.000422   0.000020   0.000000   0.000000   0.000000  -0.000695
    50  H    0.000003   0.000000   0.000000   0.000000   0.000000  -0.000141
              31         32         33         34         35         36
     1  C   -0.000545   0.000042  -0.024673  -0.007014   0.005699   0.003223
     2  H    0.000000   0.000000   0.000976  -0.000016  -0.000074   0.000000
     3  H    0.000001   0.000000   0.000249   0.000001  -0.000054  -0.000024
     4  C    0.001776  -0.001947  -0.000670   0.006144   0.005363  -0.003053
     5  H   -0.000131  -0.000017   0.000012   0.000000  -0.000016  -0.000017
     6  C   -0.000969   0.001414   0.012472  -0.000826  -0.006496   0.000072
     7  H    0.000001  -0.000001  -0.000001   0.000000   0.000001   0.000000
     8  O   -0.000004  -0.000001   0.000948  -0.000016   0.000031   0.000000
     9  O    0.000000   0.000000   0.000026   0.000000  -0.000001   0.000000
    10  H    0.000000   0.000000  -0.000003   0.000000  -0.000001   0.000000
    11  H    0.000000   0.000000   0.000000   0.000000   0.000000   0.000000
    12  O    0.000000   0.000000  -0.012861  -0.000801  -0.000101   0.000000
    13  H    0.000000   0.000000   0.019284  -0.001511  -0.000096   0.000000
    14  H    0.000000   0.000000   0.000138   0.000027   0.000011   0.000000
    15  O    0.000926   0.006584  -0.023247   0.001301   0.071498  -0.000049
    16  H    0.000045  -0.000152  -0.000718  -0.000266  -0.005854   0.000000
    17  H    0.000497  -0.002452   0.001075   0.000097   0.000041   0.000002
    18  O    0.001122   0.001305   0.000048   0.000000  -0.000010  -0.037611
    19  H   -0.001644   0.000179   0.000020   0.000000  -0.000004   0.001749
    20  H   -0.000048   0.000013   0.000000   0.000000   0.000000   0.000242
    21  O    0.000000   0.000000   0.000000   0.000000   0.000000   0.000000
    22  H    0.000000   0.000000   0.000000   0.000000   0.000000   0.000000
    23  H    0.000000   0.000000   0.000000   0.000000   0.000000   0.000000
    24  O    0.001536   0.032919  -0.001042   0.000026   0.000606   0.000000
    25  H   -0.000219  -0.002874   0.000000   0.000000  -0.000001   0.000000
    26  H   -0.000032  -0.000585   0.000255   0.000000  -0.000083   0.000000
    27  O    0.000000   0.000000   0.000000   0.000000   0.000000   0.000000
    28  H    0.000000   0.000000   0.000000   0.000000   0.000000   0.000000
    29  H    0.000000   0.000000   0.000000   0.000000   0.000000   0.000000
    30  O    0.187882   0.168021  -0.000056   0.000003  -0.000256   0.000263
    31  H    0.188169  -0.003330  -0.000005   0.000000  -0.000007  -0.000002
    32  H   -0.003330   0.226725   0.000042   0.000000  -0.000038   0.000002
    33  O   -0.000005   0.000042   8.904834   0.216464   0.131324   0.000000
    34  H    0.000000   0.000000   0.216464   0.217066  -0.009181   0.000000
    35  H   -0.000007  -0.000038   0.131324  -0.009181   0.192767   0.000000
    36  O   -0.000002   0.000002   0.000000   0.000000   0.000000   8.764746
    37  H   -0.000002   0.000000   0.000000   0.000000   0.000000   0.211364
    38  H    0.000000   0.000000   0.000000   0.000000   0.000000   0.215681
    39  O   -0.006278  -0.001985  -0.000008   0.000000   0.000000  -0.000404
    40  H    0.000292  -0.000200   0.000000   0.000000   0.000000  -0.000002
    41  H    0.001901   0.000150   0.000000   0.000000   0.000000   0.000009
    42  O    0.000000   0.000000  -0.000002   0.000000   0.000000   0.000000
    43  H    0.000000   0.000000   0.000000   0.000000   0.000000   0.000000
    44  H    0.000000   0.000000   0.000000   0.000000   0.000000   0.000000
    45  O    0.001194   0.004696   0.000017   0.000000  -0.000010   0.000000
    46  H   -0.000251  -0.000544   0.000000   0.000000   0.000000   0.000000
    47  H    0.000013   0.000126   0.000000   0.000000   0.000000   0.000000
    48  O   -0.000409   0.000109   0.000000   0.000000   0.000000  -0.000001
    49  H   -0.000269  -0.000037   0.000000   0.000000   0.000000   0.000000
    50  H   -0.000037   0.000004   0.000000   0.000000   0.000000   0.000000
              37         38         39         40         41         42
     1  C   -0.000412  -0.000174   0.004764  -0.000186   0.000094  -0.002739
     2  H    0.000000   0.000000   0.000000   0.000000   0.000000  -0.000010
     3  H    0.000000   0.000000  -0.000013   0.000000   0.000000  -0.000018
     4  C    0.000758   0.000164   0.001739  -0.000070   0.001188   0.003809
     5  H   -0.000007   0.000000   0.000061   0.000001   0.000001   0.000000
     6  C   -0.000295  -0.000015  -0.005336   0.000173  -0.000864  -0.000205
     7  H    0.000000   0.000000  -0.000008   0.000000   0.000000   0.000000
     8  O    0.000000   0.000000   0.000005   0.000000   0.000000   0.000016
     9  O    0.000000   0.000000   0.000000   0.000000   0.000000   0.000000
    10  H    0.000000   0.000000   0.000000   0.000000   0.000000   0.000000
    11  H    0.000000   0.000000   0.000000   0.000000   0.000000   0.000000
    12  O    0.000000   0.000000   0.000000   0.000000   0.000000   0.000021
    13  H    0.000000   0.000000   0.000000   0.000000   0.000000   0.000000
    14  H    0.000000   0.000000   0.000000   0.000000   0.000000   0.000000
    15  O   -0.000016   0.000000  -0.001370  -0.000001   0.000120  -0.000003
    16  H    0.000000   0.000000   0.000026   0.000000   0.000000   0.000000
    17  H   -0.000001   0.000000  -0.000380   0.000004  -0.000014   0.000000
    18  O    0.025150  -0.000674  -0.000045   0.000137  -0.000191   0.000000
    19  H    0.000675   0.000015  -0.000640   0.000007  -0.000016   0.000000
    20  H   -0.002461   0.000019   0.000505  -0.000008   0.000037   0.000000
    21  O    0.000000   0.000000  -0.000001   0.000000   0.000000   0.000000
    22  H    0.000000   0.000000   0.000000   0.000000   0.000000   0.000000
    23  H    0.000000   0.000000   0.000000   0.000000   0.000000   0.000000
    24  O    0.000000   0.000000  -0.005580   0.000177   0.000146   0.000000
    25  H    0.000000   0.000000   0.001179  -0.000048  -0.000029   0.000000
    26  H    0.000000   0.000000   0.000081  -0.000002  -0.000001   0.000000
    27  O    0.000000   0.000000   0.000000   0.000000   0.000000   0.000000
    28  H    0.000000   0.000000   0.000000   0.000000   0.000000   0.000000
    29  H    0.000000   0.000000   0.000000   0.000000   0.000000   0.000000
    30  O    0.000019  -0.000001  -0.081929   0.000115  -0.000394   0.000000
    31  H   -0.000002   0.000000  -0.006278   0.000292   0.001901   0.000000
    32  H    0.000000   0.000000  -0.001985  -0.000200   0.000150   0.000000
    33  O    0.000000   0.000000  -0.000008   0.000000   0.000000  -0.000002
    34  H    0.000000   0.000000   0.000000   0.000000   0.000000   0.000000
    35  H    0.000000   0.000000   0.000000   0.000000   0.000000   0.000000
    36  O    0.211364   0.215681  -0.000404  -0.000002   0.000009   0.000000
    37  H    0.218661  -0.008856   0.000028   0.000000  -0.000001   0.000000
    38  H   -0.008856   0.195867   0.000007   0.000000   0.000000   0.000000
    39  O    0.000028   0.000007   8.915721   0.192538   0.209406   0.000000
    40  H    0.000000   0.000000   0.192538   0.174324  -0.007146   0.000000
    41  H   -0.000001   0.000000   0.209406  -0.007146   0.207377   0.000000
    42  O    0.000000   0.000000   0.000000   0.000000   0.000000   8.679494
    43  H    0.000000   0.000000   0.000000   0.000000   0.000000   0.222539
    44  H    0.000000   0.000000   0.000000   0.000000   0.000000   0.225093
    45  O    0.000000   0.000000  -0.034792   0.002758   0.001023   0.000000
    46  H    0.000000   0.000000   0.004644   0.002756  -0.000182   0.000000
    47  H    0.000000   0.000000   0.000681  -0.000037   0.000002   0.000000
    48  O    0.000000   0.000000   0.007158  -0.003231   0.001957   0.000000
    49  H    0.000000   0.000000   0.006809  -0.000451  -0.000733   0.000000
    50  H    0.000000   0.000000   0.005145  -0.000533   0.000786   0.000000
              43         44         45         46         47         48
     1  C   -0.000008  -0.000149  -0.000762  -0.000001   0.000008   0.000297
     2  H    0.000000   0.000000   0.000000   0.000000   0.000000   0.000000
     3  H    0.000000   0.000000   0.000000   0.000000   0.000000   0.000000
     4  C   -0.000153  -0.000007  -0.003286   0.000236  -0.000050   0.001616
     5  H    0.000000   0.000000  -0.000036   0.000000   0.000000  -0.000011
     6  C    0.000001   0.000027   0.003815  -0.000179   0.000035  -0.002103
     7  H    0.000000   0.000000   0.000016   0.000000   0.000000   0.000033
     8  O    0.000000   0.000000  -0.000009   0.000000   0.000000   0.000002
     9  O    0.000000   0.000000   0.000001   0.000000   0.000000   0.000000
    10  H    0.000000   0.000000   0.000000   0.000000   0.000000   0.000000
    11  H    0.000000   0.000000   0.000000   0.000000   0.000000   0.000000
    12  O    0.000000  -0.000002   0.000000   0.000000   0.000000   0.000000
    13  H    0.000000   0.000000   0.000000   0.000000   0.000000   0.000000
    14  H    0.000000   0.000000   0.000000   0.000000   0.000000   0.000000
    15  O    0.000000   0.000000  -0.000258  -0.000005   0.000001  -0.000002
    16  H    0.000000   0.000000   0.000013   0.000000   0.000000   0.000000
    17  H    0.000000   0.000000  -0.000376   0.000008  -0.000001   0.000008
    18  O    0.000000   0.000000   0.000019  -0.000003   0.000000   0.000039
    19  H    0.000000   0.000000   0.000022   0.000000   0.000000  -0.000005
    20  H    0.000000   0.000000   0.000001   0.000000   0.000000   0.000000
    21  O    0.000000   0.000000   0.000005   0.000000   0.000000   0.000010
    22  H    0.000000   0.000000   0.000000   0.000000   0.000000   0.000000
    23  H    0.000000   0.000000   0.000000   0.000000   0.000000   0.000000
    24  O    0.000000   0.000000  -0.083363  -0.001376   0.000586  -0.000805
    25  H    0.000000   0.000000   0.011343   0.001296  -0.002067  -0.000440
    26  H    0.000000   0.000000   0.004169   0.000019  -0.000006   0.000026
    27  O    0.000000   0.000000   0.000000   0.000000   0.000000   0.000000
    28  H    0.000000   0.000000   0.000000   0.000000   0.000000   0.000000
    29  H    0.000000   0.000000   0.000000   0.000000   0.000000   0.000000
    30  O    0.000000   0.000000   0.000837  -0.000817   0.000097  -0.002972
    31  H    0.000000   0.000000   0.001194  -0.000251   0.000013  -0.000409
    32  H    0.000000   0.000000   0.004696  -0.000544   0.000126   0.000109
    33  O    0.000000   0.000000   0.000017   0.000000   0.000000   0.000000
    34  H    0.000000   0.000000   0.000000   0.000000   0.000000   0.000000
    35  H    0.000000   0.000000  -0.000010   0.000000   0.000000   0.000000
    36  O    0.000000   0.000000   0.000000   0.000000   0.000000  -0.000001
    37  H    0.000000   0.000000   0.000000   0.000000   0.000000   0.000000
    38  H    0.000000   0.000000   0.000000   0.000000   0.000000   0.000000
    39  O    0.000000   0.000000  -0.034792   0.004644   0.000681   0.007158
    40  H    0.000000   0.000000   0.002758   0.002756  -0.000037  -0.003231
    41  H    0.000000   0.000000   0.001023  -0.000182   0.000002   0.001957
    42  O    0.222539   0.225093   0.000000   0.000000   0.000000   0.000000
    43  H    0.225237  -0.010342   0.000000   0.000000   0.000000   0.000000
    44  H   -0.010342   0.219100   0.000000   0.000000   0.000000   0.000000
    45  O    0.000000   0.000000   8.932630   0.215835   0.201164  -0.044779
    46  H    0.000000   0.000000   0.215835   0.179226  -0.008983  -0.003438
    47  H    0.000000   0.000000   0.201164  -0.008983   0.175076  -0.002861
    48  O    0.000000   0.000000  -0.044779  -0.003438  -0.002861   8.879097
    49  H    0.000000   0.000000   0.016877  -0.000784  -0.002499   0.132730
    50  H    0.000000   0.000000  -0.000925  -0.000030   0.000103   0.200381
              49         50
     1  C    0.000331   0.000102
     2  H    0.000000   0.000000
     3  H    0.000000   0.000000
     4  C   -0.000388   0.000101
     5  H   -0.000002  -0.000001
     6  C    0.000461  -0.000143
     7  H   -0.000009  -0.000001
     8  O    0.000000   0.000000
     9  O    0.000000   0.000000
    10  H    0.000000   0.000000
    11  H    0.000000   0.000000
    12  O    0.000000   0.000000
    13  H    0.000000   0.000000
    14  H    0.000000   0.000000
    15  O   -0.000004  -0.000001
    16  H    0.000000   0.000000
    17  H    0.000000   0.000000
    18  O   -0.000002   0.000002
    19  H    0.000000   0.000000
    20  H    0.000000   0.000000
    21  O   -0.000003   0.000000
    22  H    0.000000   0.000000
    23  H    0.000000   0.000000
    24  O   -0.002672   0.000023
    25  H   -0.000422   0.000003
    26  H    0.000020   0.000000
    27  O    0.000000   0.000000
    28  H    0.000000   0.000000
    29  H    0.000000   0.000000
    30  O   -0.000695  -0.000141
    31  H   -0.000269  -0.000037
    32  H   -0.000037   0.000004
    33  O    0.000000   0.000000
    34  H    0.000000   0.000000
    35  H    0.000000   0.000000
    36  O    0.000000   0.000000
    37  H    0.000000   0.000000
    38  H    0.000000   0.000000
    39  O    0.006809   0.005145
    40  H   -0.000451  -0.000533
    41  H   -0.000733   0.000786
    42  O    0.000000   0.000000
    43  H    0.000000   0.000000
    44  H    0.000000   0.000000
    45  O    0.016877  -0.000925
    46  H   -0.000784  -0.000030
    47  H   -0.002499   0.000103
    48  O    0.132730   0.200381
    49  H    0.290761  -0.002282
    50  H   -0.002282   0.193853
 Mulliken charges:
               1
     1  C   -0.433064
     2  H    0.263172
     3  H    0.236079
     4  C    0.112853
     5  H    0.208760
     6  C   -0.057507
     7  H    0.204290
     8  O   -0.527658
     9  O   -1.190561
    10  H    0.528398
    11  H    0.635630
    12  O   -1.107219
    13  H    0.563415
    14  H    0.571141
    15  O   -1.222077
    16  H    0.633950
    17  H    0.588374
    18  O   -1.169274
    19  H    0.565456
    20  H    0.648437
    21  O   -1.186307
    22  H    0.592675
    23  H    0.582968
    24  O   -1.113177
    25  H    0.596290
    26  H    0.516595
    27  O   -1.245284
    28  H    0.631604
    29  H    0.625602
    30  O   -1.261027
    31  H    0.628828
    32  H    0.571833
    33  O   -1.224900
    34  H    0.578504
    35  H    0.614941
    36  O   -1.156191
    37  H    0.555398
    38  H    0.597965
    39  O   -1.211729
    40  H    0.638634
    41  H    0.585373
    42  O   -1.127995
    43  H    0.562726
    44  H    0.566281
    45  O   -1.227838
    46  H    0.612574
    47  H    0.638612
    48  O   -1.162405
    49  H    0.563265
    50  H    0.603591
 Sum of Mulliken charges =   0.00000
 Mulliken charges with hydrogens summed into heavy atoms:
               1
     1  C    0.066186
     4  C    0.321613
     6  C    0.146783
     8  O   -0.527658
     9  O   -0.026532
    12  O    0.027337
    15  O    0.000248
    18  O    0.044618
    21  O   -0.010664
    24  O   -0.000292
    27  O    0.011922
    30  O   -0.060367
    33  O   -0.031455
    36  O   -0.002828
    39  O    0.012277
    42  O    0.001012
    45  O    0.023348
    48  O    0.004451
 Electronic spatial extent (au):  <R**2>=          12280.7715
 Charge=              0.0000 electrons
 Dipole moment (field-independent basis, Debye):
    X=            -17.6855    Y=             -5.5668    Z=              1.5149  Tot=             18.6027
 Quadrupole moment (field-independent basis, Debye-Ang):
   XX=           -125.1484   YY=            -71.2680   ZZ=           -152.9035
   XY=             -9.8131   XZ=              0.4400   YZ=              5.6978
 Traceless Quadrupole moment (field-independent basis, Debye-Ang):
   XX=             -8.7085   YY=             45.1719   ZZ=            -36.4635
   XY=             -9.8131   XZ=              0.4400   YZ=              5.6978
 Octapole moment (field-independent basis, Debye-Ang**2):
  XXX=           -574.8215  YYY=            160.0646  ZZZ=            -22.2230  XYY=             72.3756
  XXY=           -232.2573  XXZ=            -60.5074  XZZ=            -40.4299  YZZ=             -7.4095
  YYZ=            151.9349  XYZ=             79.3619
 Hexadecapole moment (field-independent basis, Debye-Ang**3):
 XXXX=          -7394.2973 YYYY=          -2662.3869 ZZZZ=          -2712.2901 XXXY=           -691.3675
 XXXZ=            -12.6127 YYYX=           -532.9790 YYYZ=           -179.1356 ZZZX=           -151.3766
 ZZZY=            238.9514 XXYY=          -1453.7325 XXZZ=          -1660.5358 YYZZ=          -1195.5045
 XXYZ=            128.4546 YYXZ=             19.3542 ZZXY=           -152.7268
 N-N= 1.089051062368D+03 E-N=-6.142416129218D+03  KE= 1.248507367913D+03
 Leave Link  601 at Fri Sep 14 21:28:25 2018, MaxMem=    33554432 cpu:         2.1
 (Enter /usr/local/pacerepov1/gaussian/G09D01LINDA/g09/l9999.exe)

 Test job not archived.
 1\1\GINC-RICH133-G13-21-L\SP\RLC-wPBE TD-FC\6-31+G(d)\C3H32O15\ROOT\14
 -Sep-2018\0\\#p td=(nstates=15)/6-31+g(d) lc-wpbe charge\\Acroleina in
  Water\\0,1\C,0,0.485154,0.480443,-1.430142\H,0,1.461403,0.187773,-1.0
 55732\H,0,0.429244,0.878853,-2.437062\C,0,-0.605127,0.346563,-0.658432
 \H,0,-1.591686,0.632893,-1.012412\C,0,-0.508516,-0.199107,0.712798\H,0
 ,-1.458487,-0.272107,1.272438\O,0,0.544883,-0.561317,1.236519\O,0,0.17
 0405,-1.77316,3.408799\H,0,0.292915,-0.93684,2.874389\H,0,0.583005,-1.
 65495,4.312029\O,0,3.104095,0.61848,1.413629\H,0,2.958125,1.5665,1.130
 739\H,0,2.225425,0.14238,1.449639\O,0,0.144775,3.28691,-0.595711\H,0,0
 .637435,3.97421,-1.129511\H,0,-0.832685,3.49802,-0.601681\O,0,-1.93798
 5,3.27347,-3.811081\H,0,-1.601416,3.37358,-2.874751\H,0,-2.911485,3.50
 019,-3.841311\O,0,-2.170196,-2.43857,3.210299\H,0,-2.249906,-2.87799,4
 .105069\H,0,-1.262836,-2.0279,3.120329\O,0,-1.817935,4.411709,1.687199
 \H,0,-2.703625,4.012209,1.923909\H,0,-1.110546,4.03031,2.282349\O,0,1.
 402884,-3.91144,2.755759\H,0,0.847055,-3.08011,2.756619\H,0,0.873495,-
 4.66668,3.142219\O,0,-2.151325,3.99879,-0.914831\H,0,-3.057286,3.64221
 ,-1.143161\H,0,-2.164376,4.372749,0.012539\O,0,2.463845,3.32572,0.4992
 49\H,0,2.999744,3.57474,-0.307471\H,0,1.502455,3.22551,0.242799\O,0,-2
 .583505,1.3662,-5.550571\H,0,-2.018456,1.94232,-4.959901\H,0,-2.672616
 ,1.79622,-6.449021\O,0,-4.321275,3.30074,-1.356031\H,0,-4.916985,3.997
 1,-0.955711\H,0,-4.720255,2.39576,-1.208071\O,0,3.890655,-1.75427,-4.5
 36871\H,0,3.762335,-1.49308,-5.493631\H,0,4.450945,-1.06612,-4.075821\
 O,0,-4.110115,3.94536,1.635109\H,0,-4.649525,4.478099,0.982989\H,0,-4.
 507895,4.03478,2.548239\O,0,-5.863675,2.24106,1.367479\H,0,-4.965765,2
 .65492,1.517679\H,0,-5.874715,1.78211,0.479059\\Version=EM64L-G09RevD.
 01\State=1-A\HF=-1759.1951631\RMSD=9.784e-09\PG=C01 [X(C3H32O15)]\\@


 MAN IS THE MEASURE OF ALL THINGS.
  -- PROTAGORAS (5TH CENTURY B.C.)
 Job cpu time:       0 days  3 hours 29 minutes  2.7 seconds.
 File lengths (MBytes):  RWF=    792 Int=      0 D2E=      0 Chk=     96 Scr=      2
 Normal termination of Gaussian 09 at Fri Sep 14 21:28:28 2018.
