 Entering Gaussian System, Link 0=g09
 Input=Acroleina_water_15_14c.gjf
 Output=Acroleina_water_15_14c.log
 Initial command:
 /usr/local/pacerepov1/gaussian/G09D01LINDA/g09/l1.exe /nv/hp18/holiveira7/scratch/22411814/Gau-6143.inp -scrdir=/nv/hp18/holiveira7/scratch/22411814/
 Entering Link 1 = /usr/local/pacerepov1/gaussian/G09D01LINDA/g09/l1.exe PID=      6148.
  
 Copyright (c) 1988,1990,1992,1993,1995,1998,2003,2009,2013,
            Gaussian, Inc.  All Rights Reserved.
  
 This is part of the Gaussian(R) 09 program.  It is based on
 the Gaussian(R) 03 system (copyright 2003, Gaussian, Inc.),
 the Gaussian(R) 98 system (copyright 1998, Gaussian, Inc.),
 the Gaussian(R) 94 system (copyright 1995, Gaussian, Inc.),
 the Gaussian 92(TM) system (copyright 1992, Gaussian, Inc.),
 the Gaussian 90(TM) system (copyright 1990, Gaussian, Inc.),
 the Gaussian 88(TM) system (copyright 1988, Gaussian, Inc.),
 the Gaussian 86(TM) system (copyright 1986, Carnegie Mellon
 University), and the Gaussian 82(TM) system (copyright 1983,
 Carnegie Mellon University). Gaussian is a federally registered
 trademark of Gaussian, Inc.
  
 This software contains proprietary and confidential information,
 including trade secrets, belonging to Gaussian, Inc.
  
 This software is provided under written license and may be
 used, copied, transmitted, or stored only in accord with that
 written license.
  
 The following legend is applicable only to US Government
 contracts under FAR:
  
                    RESTRICTED RIGHTS LEGEND
  
 Use, reproduction and disclosure by the US Government is
 subject to restrictions as set forth in subparagraphs (a)
 and (c) of the Commercial Computer Software - Restricted
 Rights clause in FAR 52.227-19.
  
 Gaussian, Inc.
 340 Quinnipiac St., Bldg. 40, Wallingford CT 06492
  
  
 ---------------------------------------------------------------
 Warning -- This program may not be used in any manner that
 competes with the business of Gaussian, Inc. or will provide
 assistance to any competitor of Gaussian, Inc.  The licensee
 of this program is prohibited from giving any competitor of
 Gaussian, Inc. access to this program.  By using this program,
 the user acknowledges that Gaussian, Inc. is engaged in the
 business of creating and licensing software in the field of
 computational chemistry and represents and warrants to the
 licensee that it is not a competitor of Gaussian, Inc. and that
 it will not use this program in any manner prohibited above.
 ---------------------------------------------------------------
  

 Cite this work as:
 Gaussian 09, Revision D.01,
 M. J. Frisch, G. W. Trucks, H. B. Schlegel, G. E. Scuseria, 
 M. A. Robb, J. R. Cheeseman, G. Scalmani, V. Barone, B. Mennucci, 
 G. A. Petersson, H. Nakatsuji, M. Caricato, X. Li, H. P. Hratchian, 
 A. F. Izmaylov, J. Bloino, G. Zheng, J. L. Sonnenberg, M. Hada, 
 M. Ehara, K. Toyota, R. Fukuda, J. Hasegawa, M. Ishida, T. Nakajima, 
 Y. Honda, O. Kitao, H. Nakai, T. Vreven, J. A. Montgomery, Jr., 
 J. E. Peralta, F. Ogliaro, M. Bearpark, J. J. Heyd, E. Brothers, 
 K. N. Kudin, V. N. Staroverov, T. Keith, R. Kobayashi, J. Normand, 
 K. Raghavachari, A. Rendell, J. C. Burant, S. S. Iyengar, J. Tomasi, 
 M. Cossi, N. Rega, J. M. Millam, M. Klene, J. E. Knox, J. B. Cross, 
 V. Bakken, C. Adamo, J. Jaramillo, R. Gomperts, R. E. Stratmann, 
 O. Yazyev, A. J. Austin, R. Cammi, C. Pomelli, J. W. Ochterski, 
 R. L. Martin, K. Morokuma, V. G. Zakrzewski, G. A. Voth, 
 P. Salvador, J. J. Dannenberg, S. Dapprich, A. D. Daniels, 
 O. Farkas, J. B. Foresman, J. V. Ortiz, J. Cioslowski, 
 and D. J. Fox, Gaussian, Inc., Wallingford CT, 2013.
 
 ******************************************
 Gaussian 09:  EM64L-G09RevD.01 24-Apr-2013
                14-Sep-2018 
 ******************************************
 %chk=Acrolina_Din_14.chk
 %nprocshared=10
 Will use up to   10 processors via shared memory.
 -------------------------------------------
 #p td=(nstates=15)/6-31+g(d) lc-wpbe charge
 -------------------------------------------
 1/18=10,28=-2,38=1,125=101/1;
 2/12=2,17=6,18=5,40=1/2;
 3/5=1,6=6,7=11,11=9,16=1,25=1,30=1,74=-41/1,2,8,3;
 4//1;
 5/5=2,38=5/2;
 8/6=1,10=2,108=15/1;
 9/41=15,42=1,70=2/14;
 6/7=2,8=2,9=2,10=2/1;
 99/5=1,9=1/99;
 Leave Link    1 at Fri Sep 14 16:29:17 2018, MaxMem=           0 cpu:         9.1
 (Enter /usr/local/pacerepov1/gaussian/G09D01LINDA/g09/l101.exe)
 ------------------
 Acroleina in Water
 ------------------
 Symbolic Z-matrix:
 Charge =  0 Multiplicity = 1
 C                     0.48515   0.48044  -1.43014 
 H                     1.4614    0.18777  -1.05573 
 H                     0.42924   0.87885  -2.43706 
 C                    -0.60513   0.34656  -0.65843 
 H                    -1.59169   0.63289  -1.01241 
 C                    -0.50852  -0.19911   0.7128 
 H                    -1.45849  -0.27211   1.27244 
 O                     0.54488  -0.56132   1.23652 
 O                    -0.59777  -0.65281   3.43497 
 H                    -0.28926  -0.06805   2.6847 
 H                    -0.04556  -0.47032   4.24848 
 O                     2.49257   1.83029   0.96615 
 H                     2.20828   2.72836   0.6304 
 H                     1.72006   1.38327   1.41717 
 O                     2.01713  -3.96938   1.82578 
 H                     1.13296  -3.57978   2.08369 
 H                     2.4197   -4.43351   2.6148 
 O                    -0.15077   4.35779  -0.41094 
 H                     0.37077   5.11532  -0.80359 
 H                    -1.11831   4.60674  -0.367 
 O                     0.26183  -2.70359   2.83503 
 H                    -0.29208  -1.87495   2.91627 
 H                    -0.33234  -3.50692   2.87534 
 O                     2.14039   3.92004   0.20633 
 H                     2.63633   4.63726  -0.28319 
 H                     1.17375   3.95004  -0.0482 
 O                     1.99166  -1.66534   4.20414 
 H                     2.66986  -1.17714   3.65483 
 H                     1.3733   -2.16841   3.60033 
 O                     4.10984  -4.40615   0.6278 
 H                     3.23003  -4.0923    0.98483 
 H                     3.95519  -5.0856   -0.08947 
 O                    -2.95232  -1.34136   3.91305 
 H                    -2.79015  -1.95247   4.68785 
 H                    -2.0915   -0.91003   3.64291 
 O                    -2.69957   4.95622  -0.54024 
 H                    -3.58199   4.56936  -0.80806 
 H                    -2.74209   5.25463   0.41326 
 O                     4.6964    1.83154   0.54894 
 H                     4.82706   1.88453  -0.44109 
 H                     3.73255   1.65528   0.74894 
 O                     1.72929  -6.20068   0.27371 
 H                     1.88891  -5.45133   0.91639 
 H                     2.58516  -6.43019  -0.18982 
 O                     0.69414  -0.41212   5.50821 
 H                     1.23074   0.03932   6.22115 
 H                     1.3066   -0.91471   4.89804 
 O                     4.02473  -1.01728   3.39512 
 H                     4.49615  -0.38006   4.00484 
 H                     4.56081  -1.13735   2.55951 
 
 NAtoms=     50 NQM=       50 NQMF=       0 NMMI=      0 NMMIF=      0
                NMic=       0 NMicF=      0.
                    Isotopes and Nuclear Properties:
 (Nuclear quadrupole moments (NQMom) in fm**2, nuclear magnetic moments (NMagM)
  in nuclear magnetons)

  Atom         1           2           3           4           5           6           7           8           9          10
 IAtWgt=          12           1           1          12           1          12           1          16          16           1
 AtmWgt=  12.0000000   1.0078250   1.0078250  12.0000000   1.0078250  12.0000000   1.0078250  15.9949146  15.9949146   1.0078250
 NucSpn=           0           1           1           0           1           0           1           0           0           1
 AtZEff=   0.0000000   0.0000000   0.0000000   0.0000000   0.0000000   0.0000000   0.0000000   0.0000000   0.0000000   0.0000000
 NQMom=    0.0000000   0.0000000   0.0000000   0.0000000   0.0000000   0.0000000   0.0000000   0.0000000   0.0000000   0.0000000
 NMagM=    0.0000000   2.7928460   2.7928460   0.0000000   2.7928460   0.0000000   2.7928460   0.0000000   0.0000000   2.7928460
 AtZNuc=   6.0000000   1.0000000   1.0000000   6.0000000   1.0000000   6.0000000   1.0000000   8.0000000   8.0000000   1.0000000

  Atom        11          12          13          14          15          16          17          18          19          20
 IAtWgt=           1          16           1           1          16           1           1          16           1           1
 AtmWgt=   1.0078250  15.9949146   1.0078250   1.0078250  15.9949146   1.0078250   1.0078250  15.9949146   1.0078250   1.0078250
 NucSpn=           1           0           1           1           0           1           1           0           1           1
 AtZEff=   0.0000000   0.0000000   0.0000000   0.0000000   0.0000000   0.0000000   0.0000000   0.0000000   0.0000000   0.0000000
 NQMom=    0.0000000   0.0000000   0.0000000   0.0000000   0.0000000   0.0000000   0.0000000   0.0000000   0.0000000   0.0000000
 NMagM=    2.7928460   0.0000000   2.7928460   2.7928460   0.0000000   2.7928460   2.7928460   0.0000000   2.7928460   2.7928460
 AtZNuc=   1.0000000   8.0000000   1.0000000   1.0000000   8.0000000   1.0000000   1.0000000   8.0000000   1.0000000   1.0000000

  Atom        21          22          23          24          25          26          27          28          29          30
 IAtWgt=          16           1           1          16           1           1          16           1           1          16
 AtmWgt=  15.9949146   1.0078250   1.0078250  15.9949146   1.0078250   1.0078250  15.9949146   1.0078250   1.0078250  15.9949146
 NucSpn=           0           1           1           0           1           1           0           1           1           0
 AtZEff=   0.0000000   0.0000000   0.0000000   0.0000000   0.0000000   0.0000000   0.0000000   0.0000000   0.0000000   0.0000000
 NQMom=    0.0000000   0.0000000   0.0000000   0.0000000   0.0000000   0.0000000   0.0000000   0.0000000   0.0000000   0.0000000
 NMagM=    0.0000000   2.7928460   2.7928460   0.0000000   2.7928460   2.7928460   0.0000000   2.7928460   2.7928460   0.0000000
 AtZNuc=   8.0000000   1.0000000   1.0000000   8.0000000   1.0000000   1.0000000   8.0000000   1.0000000   1.0000000   8.0000000

  Atom        31          32          33          34          35          36          37          38          39          40
 IAtWgt=           1           1          16           1           1          16           1           1          16           1
 AtmWgt=   1.0078250   1.0078250  15.9949146   1.0078250   1.0078250  15.9949146   1.0078250   1.0078250  15.9949146   1.0078250
 NucSpn=           1           1           0           1           1           0           1           1           0           1
 AtZEff=   0.0000000   0.0000000   0.0000000   0.0000000   0.0000000   0.0000000   0.0000000   0.0000000   0.0000000   0.0000000
 NQMom=    0.0000000   0.0000000   0.0000000   0.0000000   0.0000000   0.0000000   0.0000000   0.0000000   0.0000000   0.0000000
 NMagM=    2.7928460   2.7928460   0.0000000   2.7928460   2.7928460   0.0000000   2.7928460   2.7928460   0.0000000   2.7928460
 AtZNuc=   1.0000000   1.0000000   8.0000000   1.0000000   1.0000000   8.0000000   1.0000000   1.0000000   8.0000000   1.0000000

  Atom        41          42          43          44          45          46          47          48          49          50
 IAtWgt=           1          16           1           1          16           1           1          16           1           1
 AtmWgt=   1.0078250  15.9949146   1.0078250   1.0078250  15.9949146   1.0078250   1.0078250  15.9949146   1.0078250   1.0078250
 NucSpn=           1           0           1           1           0           1           1           0           1           1
 AtZEff=   0.0000000   0.0000000   0.0000000   0.0000000   0.0000000   0.0000000   0.0000000   0.0000000   0.0000000   0.0000000
 NQMom=    0.0000000   0.0000000   0.0000000   0.0000000   0.0000000   0.0000000   0.0000000   0.0000000   0.0000000   0.0000000
 NMagM=    2.7928460   0.0000000   2.7928460   2.7928460   0.0000000   2.7928460   2.7928460   0.0000000   2.7928460   2.7928460
 AtZNuc=   1.0000000   8.0000000   1.0000000   1.0000000   8.0000000   1.0000000   1.0000000   8.0000000   1.0000000   1.0000000
 Background charge distribution read from input stream:
 Point Charges:
 XYZ=    5.2402   -1.6873    1.1556 Q=   -0.8200 A=    0.0000 R=    0.0000 C=    0.0000
 XYZ=    5.2059   -2.0664    0.2309 Q=    0.4100 A=    0.0000 R=    0.0000 C=    0.0000
 XYZ=    5.5736   -2.3850    1.7896 Q=    0.4100 A=    0.0000 R=    0.0000 C=    0.0000
 XYZ=    4.5963   -2.7014   -4.1737 Q=   -0.8200 A=    0.0000 R=    0.0000 C=    0.0000
 XYZ=    5.2145   -2.3237   -3.4843 Q=    0.4100 A=    0.0000 R=    0.0000 C=    0.0000
 XYZ=    3.8939   -2.0257   -4.3975 Q=    0.4100 A=    0.0000 R=    0.0000 C=    0.0000
 XYZ=    3.3600   -0.7533   -4.6631 Q=   -0.8200 A=    0.0000 R=    0.0000 C=    0.0000
 XYZ=    2.9979   -0.1398   -5.3649 Q=    0.4100 A=    0.0000 R=    0.0000 C=    0.0000
 XYZ=    4.0906   -0.2907   -4.1608 Q=    0.4100 A=    0.0000 R=    0.0000 C=    0.0000
 XYZ=    5.5943   -3.2353   -0.8390 Q=   -0.8200 A=    0.0000 R=    0.0000 C=    0.0000
 XYZ=    4.9063   -3.6569   -0.2483 Q=    0.4100 A=    0.0000 R=    0.0000 C=    0.0000
 XYZ=    6.4003   -3.8255   -0.8857 Q=    0.4100 A=    0.0000 R=    0.0000 C=    0.0000
 XYZ=   -2.6067    2.0428   -5.5713 Q=   -0.8200 A=    0.0000 R=    0.0000 C=    0.0000
 XYZ=   -2.5713    2.7865   -4.9037 Q=    0.4100 A=    0.0000 R=    0.0000 C=    0.0000
 XYZ=   -2.7147    2.4241   -6.4895 Q=    0.4100 A=    0.0000 R=    0.0000 C=    0.0000
 XYZ=   -2.6370    5.6276    1.7536 Q=   -0.8200 A=    0.0000 R=    0.0000 C=    0.0000
 XYZ=   -3.5518    5.3492    2.0464 Q=    0.4100 A=    0.0000 R=    0.0000 C=    0.0000
 XYZ=   -1.9662    5.3393    2.4369 Q=    0.4100 A=    0.0000 R=    0.0000 C=    0.0000
 XYZ=    3.6577    4.9621    1.9226 Q=   -0.8200 A=    0.0000 R=    0.0000 C=    0.0000
 XYZ=    3.0822    4.2922    1.4536 Q=    0.4100 A=    0.0000 R=    0.0000 C=    0.0000
 XYZ=    3.7044    5.8001    1.3789 Q=    0.4100 A=    0.0000 R=    0.0000 C=    0.0000
 XYZ=    3.8723   -6.0718   -0.9365 Q=   -0.8200 A=    0.0000 R=    0.0000 C=    0.0000
 XYZ=    4.6984   -6.6354   -0.9321 Q=    0.4100 A=    0.0000 R=    0.0000 C=    0.0000
 XYZ=    3.6493   -5.8146   -1.8768 Q=    0.4100 A=    0.0000 R=    0.0000 C=    0.0000
 XYZ=    4.0427   -3.1058    4.4224 Q=   -0.8200 A=    0.0000 R=    0.0000 C=    0.0000
 XYZ=    4.0214   -2.2342    3.9326 Q=    0.4100 A=    0.0000 R=    0.0000 C=    0.0000
 XYZ=    3.7430   -2.9652    5.3661 Q=    0.4100 A=    0.0000 R=    0.0000 C=    0.0000
 XYZ=   -4.9718    4.2395   -1.1034 Q=   -0.8200 A=    0.0000 R=    0.0000 C=    0.0000
 XYZ=   -5.5044    4.9226   -0.6038 Q=    0.4100 A=    0.0000 R=    0.0000 C=    0.0000
 XYZ=   -5.5055    3.3982   -1.1892 Q=    0.4100 A=    0.0000 R=    0.0000 C=    0.0000
 XYZ=   -2.1382    6.7812   -2.1377 Q=   -0.8200 A=    0.0000 R=    0.0000 C=    0.0000
 XYZ=   -2.3534    6.0003   -1.5511 Q=    0.4100 A=    0.0000 R=    0.0000 C=    0.0000
 XYZ=   -2.0770    7.6095   -1.5807 Q=    0.4100 A=    0.0000 R=    0.0000 C=    0.0000
 XYZ=   -0.6065   -6.6332   -0.1079 Q=   -0.8200 A=    0.0000 R=    0.0000 C=    0.0000
 XYZ=    0.3876   -6.5643   -0.0228 Q=    0.4100 A=    0.0000 R=    0.0000 C=    0.0000
 XYZ=   -0.8591   -7.5803   -0.3060 Q=    0.4100 A=    0.0000 R=    0.0000 C=    0.0000
 XYZ=   -0.9244   -4.7578    3.1399 Q=   -0.8200 A=    0.0000 R=    0.0000 C=    0.0000
 XYZ=   -1.1837   -5.4754    2.4935 Q=    0.4100 A=    0.0000 R=    0.0000 C=    0.0000
 XYZ=   -0.0250   -4.9650    3.5247 Q=    0.4100 A=    0.0000 R=    0.0000 C=    0.0000
 XYZ=    5.5244   -3.8197    2.4369 Q=   -0.8200 A=    0.0000 R=    0.0000 C=    0.0000
 XYZ=    5.2191   -3.6003    3.3636 Q=    0.4100 A=    0.0000 R=    0.0000 C=    0.0000
 XYZ=    4.7418   -4.1165    1.8897 Q=    0.4100 A=    0.0000 R=    0.0000 C=    0.0000
 XYZ=   -2.3496    4.4405   -4.4675 Q=   -0.8200 A=    0.0000 R=    0.0000 C=    0.0000
 XYZ=   -1.6082    4.6587   -3.8330 Q=    0.4100 A=    0.0000 R=    0.0000 C=    0.0000
 XYZ=   -3.2294    4.5969   -4.0185 Q=    0.4100 A=    0.0000 R=    0.0000 C=    0.0000
 XYZ=    2.3585    0.6740   -6.4534 Q=   -0.8200 A=    0.0000 R=    0.0000 C=    0.0000
 XYZ=    2.6692    1.2255   -7.2276 Q=    0.4100 A=    0.0000 R=    0.0000 C=    0.0000
 XYZ=    1.5266    1.0758   -6.0706 Q=    0.4100 A=    0.0000 R=    0.0000 C=    0.0000
 XYZ=   -4.7877    1.3264   -5.2026 Q=   -0.8200 A=    0.0000 R=    0.0000 C=    0.0000
 XYZ=   -4.9267    0.6417   -4.4871 Q=    0.4100 A=    0.0000 R=    0.0000 C=    0.0000
 XYZ=   -3.8139    1.3857   -5.4225 Q=    0.4100 A=    0.0000 R=    0.0000 C=    0.0000
 XYZ=    6.3367    0.2762    0.9128 Q=   -0.8200 A=    0.0000 R=    0.0000 C=    0.0000
 XYZ=    5.6072    0.9590    0.8725 Q=    0.4100 A=    0.0000 R=    0.0000 C=    0.0000
 XYZ=    5.9364   -0.6402    0.9042 Q=    0.4100 A=    0.0000 R=    0.0000 C=    0.0000
 XYZ=    6.0521   -1.6861   -2.5459 Q=   -0.8200 A=    0.0000 R=    0.0000 C=    0.0000
 XYZ=    6.8759   -1.2347   -2.2028 Q=    0.4100 A=    0.0000 R=    0.0000 C=    0.0000
 XYZ=    5.7941   -2.4258   -1.9243 Q=    0.4100 A=    0.0000 R=    0.0000 C=    0.0000
 XYZ=   -5.0872   -1.5592    2.7196 Q=   -0.8200 A=    0.0000 R=    0.0000 C=    0.0000
 XYZ=   -4.1511   -1.5432    3.0709 Q=    0.4100 A=    0.0000 R=    0.0000 C=    0.0000
 XYZ=   -5.4491   -2.4897    2.7777 Q=    0.4100 A=    0.0000 R=    0.0000 C=    0.0000
 XYZ=    4.6849   -4.9815   -4.0668 Q=   -0.8200 A=    0.0000 R=    0.0000 C=    0.0000
 XYZ=    4.6517   -3.9881   -4.1759 Q=    0.4100 A=    0.0000 R=    0.0000 C=    0.0000
 XYZ=    3.8564   -5.3872   -4.4529 Q=    0.4100 A=    0.0000 R=    0.0000 C=    0.0000
 XYZ=    5.2612    0.2564   -3.6058 Q=   -0.8200 A=    0.0000 R=    0.0000 C=    0.0000
 XYZ=    5.6860    0.1786   -4.5078 Q=    0.4100 A=    0.0000 R=    0.0000 C=    0.0000
 XYZ=    5.4385   -0.5761   -3.0809 Q=    0.4100 A=    0.0000 R=    0.0000 C=    0.0000
 XYZ=   -0.9212   -1.6742    6.5500 Q=   -0.8200 A=    0.0000 R=    0.0000 C=    0.0000
 XYZ=   -0.2123   -1.1380    6.0918 Q=    0.4100 A=    0.0000 R=    0.0000 C=    0.0000
 XYZ=   -1.6140   -1.9494    5.8834 Q=    0.4100 A=    0.0000 R=    0.0000 C=    0.0000
 XYZ=    2.9900   -4.9324    3.6410 Q=   -0.8200 A=    0.0000 R=    0.0000 C=    0.0000
 XYZ=    2.1185   -5.0299    4.1217 Q=    0.4100 A=    0.0000 R=    0.0000 C=    0.0000
 XYZ=    3.4619   -4.1140    3.9690 Q=    0.4100 A=    0.0000 R=    0.0000 C=    0.0000
 XYZ=    1.1632    6.1288   -1.4472 Q=   -0.8200 A=    0.0000 R=    0.0000 C=    0.0000
 XYZ=    1.9331    5.6042   -1.8105 Q=    0.4100 A=    0.0000 R=    0.0000 C=    0.0000
 XYZ=    0.6060    6.4706   -2.2040 Q=    0.4100 A=    0.0000 R=    0.0000 C=    0.0000
 XYZ=   -4.6187    4.5507   -3.5536 Q=   -0.8200 A=    0.0000 R=    0.0000 C=    0.0000
 XYZ=   -4.7477    4.4796   -2.5645 Q=    0.4100 A=    0.0000 R=    0.0000 C=    0.0000
 XYZ=   -5.2737    3.9553   -4.0188 Q=    0.4100 A=    0.0000 R=    0.0000 C=    0.0000
 XYZ=   -4.9487   -0.0449    4.5987 Q=   -0.8200 A=    0.0000 R=    0.0000 C=    0.0000
 XYZ=   -3.9542   -0.0515    4.7032 Q=    0.4100 A=    0.0000 R=    0.0000 C=    0.0000
 XYZ=   -5.2048   -0.6052    3.8109 Q=    0.4100 A=    0.0000 R=    0.0000 C=    0.0000
 XYZ=   -6.7358    3.0759    1.1685 Q=   -0.8200 A=    0.0000 R=    0.0000 C=    0.0000
 XYZ=   -5.8406    3.5012    1.3013 Q=    0.4100 A=    0.0000 R=    0.0000 C=    0.0000
 XYZ=   -6.8689    2.8754    0.1978 Q=    0.4100 A=    0.0000 R=    0.0000 C=    0.0000
 XYZ=   -4.9969    4.7967    1.8973 Q=   -0.8200 A=    0.0000 R=    0.0000 C=    0.0000
 XYZ=   -5.5278    5.3896    1.2918 Q=    0.4100 A=    0.0000 R=    0.0000 C=    0.0000
 XYZ=   -5.4447    4.7453    2.7900 Q=    0.4100 A=    0.0000 R=    0.0000 C=    0.0000
 XYZ=   -1.7189   -6.5962    1.9280 Q=   -0.8200 A=    0.0000 R=    0.0000 C=    0.0000
 XYZ=   -1.1888   -6.5781    1.0802 Q=    0.4100 A=    0.0000 R=    0.0000 C=    0.0000
 XYZ=   -2.4291   -7.2972    1.8621 Q=    0.4100 A=    0.0000 R=    0.0000 C=    0.0000
 XYZ=    4.4537   -3.2394   -6.6093 Q=   -0.8200 A=    0.0000 R=    0.0000 C=    0.0000
 XYZ=    4.4542   -2.8938   -5.6709 Q=    0.4100 A=    0.0000 R=    0.0000 C=    0.0000
 XYZ=    5.3900   -3.4577   -6.8846 Q=    0.4100 A=    0.0000 R=    0.0000 C=    0.0000
 XYZ=    2.9506   -2.5091    6.3355 Q=   -0.8200 A=    0.0000 R=    0.0000 C=    0.0000
 XYZ=    2.7055   -1.7760    5.7010 Q=    0.4100 A=    0.0000 R=    0.0000 C=    0.0000
 XYZ=    3.2170   -2.1137    7.2146 Q=    0.4100 A=    0.0000 R=    0.0000 C=    0.0000
 XYZ=   -1.6161    7.9446    1.3381 Q=   -0.8200 A=    0.0000 R=    0.0000 C=    0.0000
 XYZ=   -2.1924    8.5909    1.8382 Q=    0.4100 A=    0.0000 R=    0.0000 C=    0.0000
 XYZ=   -2.0472    7.0422    1.3411 Q=    0.4100 A=    0.0000 R=    0.0000 C=    0.0000
 XYZ=   -6.6709    2.6193   -1.1912 Q=   -0.8200 A=    0.0000 R=    0.0000 C=    0.0000
 XYZ=   -6.8607    1.6378   -1.1630 Q=    0.4100 A=    0.0000 R=    0.0000 C=    0.0000
 XYZ=   -7.1965    3.0392   -1.9311 Q=    0.4100 A=    0.0000 R=    0.0000 C=    0.0000
 XYZ=    0.9044   -5.2008    4.7346 Q=   -0.8200 A=    0.0000 R=    0.0000 C=    0.0000
 XYZ=    0.5788   -6.0718    5.1025 Q=    0.4100 A=    0.0000 R=    0.0000 C=    0.0000
 XYZ=    0.7947   -4.4856    5.4249 Q=    0.4100 A=    0.0000 R=    0.0000 C=    0.0000
 XYZ=   -6.7627   -1.7941    0.9967 Q=   -0.8200 A=    0.0000 R=    0.0000 C=    0.0000
 XYZ=   -5.8117   -1.6380    1.2636 Q=    0.4100 A=    0.0000 R=    0.0000 C=    0.0000
 XYZ=   -6.9159   -2.7737    0.8666 Q=    0.4100 A=    0.0000 R=    0.0000 C=    0.0000
 XYZ=    0.0898    7.0112   -3.2168 Q=   -0.8200 A=    0.0000 R=    0.0000 C=    0.0000
 XYZ=   -0.8370    6.7790   -2.9215 Q=    0.4100 A=    0.0000 R=    0.0000 C=    0.0000
 XYZ=    0.2791    6.5731   -4.0956 Q=    0.4100 A=    0.0000 R=    0.0000 C=    0.0000
 XYZ=    5.6481    2.1270   -2.1629 Q=   -0.8200 A=    0.0000 R=    0.0000 C=    0.0000
 XYZ=    5.3538    3.0088   -2.5316 Q=    0.4100 A=    0.0000 R=    0.0000 C=    0.0000
 XYZ=    5.4288    1.4026   -2.8165 Q=    0.4100 A=    0.0000 R=    0.0000 C=    0.0000
 XYZ=    4.9942    0.2143    5.0365 Q=   -0.8200 A=    0.0000 R=    0.0000 C=    0.0000
 XYZ=    5.3473   -0.2795    5.8312 Q=    0.4100 A=    0.0000 R=    0.0000 C=    0.0000
 XYZ=    4.3815    0.9432    5.3422 Q=    0.4100 A=    0.0000 R=    0.0000 C=    0.0000
 XYZ=   -2.5379   -5.0307    4.8285 Q=   -0.8200 A=    0.0000 R=    0.0000 C=    0.0000
 XYZ=   -1.9703   -5.0165    4.0053 Q=    0.4100 A=    0.0000 R=    0.0000 C=    0.0000
 XYZ=   -2.1845   -5.7162    5.4652 Q=    0.4100 A=    0.0000 R=    0.0000 C=    0.0000
 XYZ=   -3.8164   -5.6629    1.6468 Q=   -0.8200 A=    0.0000 R=    0.0000 C=    0.0000
 XYZ=   -2.8535   -5.9066    1.5313 Q=    0.4100 A=    0.0000 R=    0.0000 C=    0.0000
 XYZ=   -4.2741   -5.6822    0.7578 Q=    0.4100 A=    0.0000 R=    0.0000 C=    0.0000
 XYZ=    3.5714    5.3261   -1.2711 Q=   -0.8200 A=    0.0000 R=    0.0000 C=    0.0000
 XYZ=    4.0190    5.9835   -0.6649 Q=    0.4100 A=    0.0000 R=    0.0000 C=    0.0000
 XYZ=    4.2555    4.7025   -1.6496 Q=    0.4100 A=    0.0000 R=    0.0000 C=    0.0000
 XYZ=    5.8672    3.2605    2.7090 Q=   -0.8200 A=    0.0000 R=    0.0000 C=    0.0000
 XYZ=    5.2754    3.8635    3.2440 Q=    0.4100 A=    0.0000 R=    0.0000 C=    0.0000
 XYZ=    5.5253    3.2046    1.7709 Q=    0.4100 A=    0.0000 R=    0.0000 C=    0.0000
 XYZ=    1.8268    7.9271    0.0120 Q=   -0.8200 A=    0.0000 R=    0.0000 C=    0.0000
 XYZ=    1.3060    8.0171    0.8610 Q=    0.4100 A=    0.0000 R=    0.0000 C=    0.0000
 XYZ=    1.5452    7.0946   -0.4651 Q=    0.4100 A=    0.0000 R=    0.0000 C=    0.0000
 XYZ=    4.6068    4.8731    3.9909 Q=   -0.8200 A=    0.0000 R=    0.0000 C=    0.0000
 XYZ=    4.0167    4.7322    4.7859 Q=    0.4100 A=    0.0000 R=    0.0000 C=    0.0000
 XYZ=    4.0520    4.8671    3.1589 Q=    0.4100 A=    0.0000 R=    0.0000 C=    0.0000
 XYZ=   -7.0862    0.3393   -0.7203 Q=   -0.8200 A=    0.0000 R=    0.0000 C=    0.0000
 XYZ=   -7.1649   -0.4670   -1.3065 Q=    0.4100 A=    0.0000 R=    0.0000 C=    0.0000
 XYZ=   -7.0187    0.0515    0.2351 Q=    0.4100 A=    0.0000 R=    0.0000 C=    0.0000
 XYZ=    2.2814    0.6126    7.1026 Q=   -0.8200 A=    0.0000 R=    0.0000 C=    0.0000
 XYZ=    2.7975   -0.0529    7.6419 Q=    0.4100 A=    0.0000 R=    0.0000 C=    0.0000
 XYZ=    2.9096    1.2890    6.7181 Q=    0.4100 A=    0.0000 R=    0.0000 C=    0.0000
 XYZ=   -6.0666    3.0957   -4.6708 Q=   -0.8200 A=    0.0000 R=    0.0000 C=    0.0000
 XYZ=   -6.2429    3.6489   -5.4850 Q=    0.4100 A=    0.0000 R=    0.0000 C=    0.0000
 XYZ=   -5.4896    2.3165   -4.9158 Q=    0.4100 A=    0.0000 R=    0.0000 C=    0.0000
 XYZ=    0.7015   -3.4949    6.5240 Q=   -0.8200 A=    0.0000 R=    0.0000 C=    0.0000
 XYZ=    1.6318   -3.1669    6.3596 Q=    0.4100 A=    0.0000 R=    0.0000 C=    0.0000
 XYZ=    0.0686   -2.7207    6.5146 Q=    0.4100 A=    0.0000 R=    0.0000 C=    0.0000
 XYZ=   -2.8332   -2.8185    5.6187 Q=   -0.8200 A=    0.0000 R=    0.0000 C=    0.0000
 XYZ=   -3.2575   -2.7319    6.5201 Q=    0.4100 A=    0.0000 R=    0.0000 C=    0.0000
 XYZ=   -2.6784   -3.7852    5.4147 Q=    0.4100 A=    0.0000 R=    0.0000 C=    0.0000
 XYZ=    4.7321   -6.6794    3.0409 Q=   -0.8200 A=    0.0000 R=    0.0000 C=    0.0000
 XYZ=    4.4398   -7.5925    2.7564 Q=    0.4100 A=    0.0000 R=    0.0000 C=    0.0000
 XYZ=    3.9310   -6.1368    3.2938 Q=    0.4100 A=    0.0000 R=    0.0000 C=    0.0000
 XYZ=    7.3056    1.2248   -0.8348 Q=   -0.8200 A=    0.0000 R=    0.0000 C=    0.0000
 XYZ=    6.5879    1.6126   -1.4132 Q=    0.4100 A=    0.0000 R=    0.0000 C=    0.0000
 XYZ=    6.8934    0.8194   -0.0189 Q=    0.4100 A=    0.0000 R=    0.0000 C=    0.0000
 XYZ=   -5.7003   -4.2245   -4.7613 Q=   -0.8200 A=    0.0000 R=    0.0000 C=    0.0000
 XYZ=   -4.7640   -3.8856   -4.6689 Q=    0.4100 A=    0.0000 R=    0.0000 C=    0.0000
 XYZ=   -6.0441   -4.0090   -5.6753 Q=    0.4100 A=    0.0000 R=    0.0000 C=    0.0000
 XYZ=    6.7371   -5.6552   -2.8047 Q=   -0.8200 A=    0.0000 R=    0.0000 C=    0.0000
 XYZ=    5.8944   -5.4459   -3.3008 Q=    0.4100 A=    0.0000 R=    0.0000 C=    0.0000
 XYZ=    7.4883   -5.7658   -3.4554 Q=    0.4100 A=    0.0000 R=    0.0000 C=    0.0000
 XYZ=    3.9894   -1.1474   -7.6926 Q=   -0.8200 A=    0.0000 R=    0.0000 C=    0.0000
 XYZ=    3.9399   -2.0741   -7.3200 Q=    0.4100 A=    0.0000 R=    0.0000 C=    0.0000
 XYZ=    3.4737   -0.5240   -7.1049 Q=    0.4100 A=    0.0000 R=    0.0000 C=    0.0000
 XYZ=   -1.5866    5.4537   -6.5175 Q=   -0.8200 A=    0.0000 R=    0.0000 C=    0.0000
 XYZ=   -1.8571    4.9784   -5.6803 Q=    0.4100 A=    0.0000 R=    0.0000 C=    0.0000
 XYZ=   -2.3743    5.5251   -7.1295 Q=    0.4100 A=    0.0000 R=    0.0000 C=    0.0000
 XYZ=    3.8214    2.1068    6.2730 Q=   -0.8200 A=    0.0000 R=    0.0000 C=    0.0000
 XYZ=    4.4208    1.9747    7.0624 Q=    0.4100 A=    0.0000 R=    0.0000 C=    0.0000
 XYZ=    3.6470    3.0833    6.1467 Q=    0.4100 A=    0.0000 R=    0.0000 C=    0.0000
 XYZ=   -4.1150    7.0258   -3.7024 Q=   -0.8200 A=    0.0000 R=    0.0000 C=    0.0000
 XYZ=   -3.2851    6.8941   -3.1601 Q=    0.4100 A=    0.0000 R=    0.0000 C=    0.0000
 XYZ=   -4.5456    6.1396   -3.8733 Q=    0.4100 A=    0.0000 R=    0.0000 C=    0.0000
 XYZ=    7.5449   -4.7524    1.4614 Q=   -0.8200 A=    0.0000 R=    0.0000 C=    0.0000
 XYZ=    6.7203   -4.4319    1.9276 Q=    0.4100 A=    0.0000 R=    0.0000 C=    0.0000
 XYZ=    7.3939   -4.7429    0.4729 Q=    0.4100 A=    0.0000 R=    0.0000 C=    0.0000
 XYZ=   -7.7243    1.3839    2.8363 Q=   -0.8200 A=    0.0000 R=    0.0000 C=    0.0000
 XYZ=   -7.3218    2.0303    2.1880 Q=    0.4100 A=    0.0000 R=    0.0000 C=    0.0000
 XYZ=   -7.2944    1.4988    3.7319 Q=    0.4100 A=    0.0000 R=    0.0000 C=    0.0000
 XYZ=   -6.3970    5.7484    0.2835 Q=   -0.8200 A=    0.0000 R=    0.0000 C=    0.0000
 XYZ=   -6.4476    6.6720   -0.0967 Q=    0.4100 A=    0.0000 R=    0.0000 C=    0.0000
 XYZ=   -7.2791    5.5055    0.6874 Q=    0.4100 A=    0.0000 R=    0.0000 C=    0.0000
 XYZ=    1.1090    2.4530    8.4075 Q=   -0.8200 A=    0.0000 R=    0.0000 C=    0.0000
 XYZ=    1.5014    1.6950    7.8864 Q=    0.4100 A=    0.0000 R=    0.0000 C=    0.0000
 XYZ=    0.1774    2.2191    8.6858 Q=    0.4100 A=    0.0000 R=    0.0000 C=    0.0000
 XYZ=   -1.5561    8.7898   -0.9062 Q=   -0.8200 A=    0.0000 R=    0.0000 C=    0.0000
 XYZ=   -0.7398    9.3362   -1.0943 Q=    0.4100 A=    0.0000 R=    0.0000 C=    0.0000
 XYZ=   -1.5088    8.4301    0.0257 Q=    0.4100 A=    0.0000 R=    0.0000 C=    0.0000
 XYZ=    0.5674    8.2717    2.0744 Q=   -0.8200 A=    0.0000 R=    0.0000 C=    0.0000
 XYZ=    0.5765    9.0134    2.7451 Q=    0.4100 A=    0.0000 R=    0.0000 C=    0.0000
 XYZ=   -0.3464    8.1940    1.6758 Q=    0.4100 A=    0.0000 R=    0.0000 C=    0.0000
 XYZ=   -1.8609   -1.4597    8.5207 Q=   -0.8200 A=    0.0000 R=    0.0000 C=    0.0000
 XYZ=   -1.4001   -1.5557    7.6384 Q=    0.4100 A=    0.0000 R=    0.0000 C=    0.0000
 XYZ=   -1.3039   -1.8827    9.2354 Q=    0.4100 A=    0.0000 R=    0.0000 C=    0.0000
 XYZ=   -5.6745    2.1280   -7.3483 Q=   -0.8200 A=    0.0000 R=    0.0000 C=    0.0000
 XYZ=   -6.0504    1.4352   -7.9638 Q=    0.4100 A=    0.0000 R=    0.0000 C=    0.0000
 XYZ=   -5.4564    1.7080   -6.4673 Q=    0.4100 A=    0.0000 R=    0.0000 C=    0.0000
 XYZ=    6.7323    1.9199    4.4347 Q=   -0.8200 A=    0.0000 R=    0.0000 C=    0.0000
 XYZ=    6.2763    2.4280    3.7040 Q=    0.4100 A=    0.0000 R=    0.0000 C=    0.0000
 XYZ=    6.2135    1.0893    4.6370 Q=    0.4100 A=    0.0000 R=    0.0000 C=    0.0000
 XYZ=    8.4937    0.2733    1.9949 Q=   -0.8200 A=    0.0000 R=    0.0000 C=    0.0000
 XYZ=    8.3707    0.5754    2.9403 Q=    0.4100 A=    0.0000 R=    0.0000 C=    0.0000
 XYZ=    7.6463    0.4212    1.4850 Q=    0.4100 A=    0.0000 R=    0.0000 C=    0.0000
 XYZ=    3.5005    4.5189    5.9437 Q=   -0.8200 A=    0.0000 R=    0.0000 C=    0.0000
 XYZ=    4.3752    4.7962    6.3413 Q=    0.4100 A=    0.0000 R=    0.0000 C=    0.0000
 XYZ=    2.8193    5.2328    6.1060 Q=    0.4100 A=    0.0000 R=    0.0000 C=    0.0000
 XYZ=    1.3550    7.3625    4.2419 Q=   -0.8200 A=    0.0000 R=    0.0000 C=    0.0000
 XYZ=    1.0591    7.5157    3.2991 Q=    0.4100 A=    0.0000 R=    0.0000 C=    0.0000
 XYZ=    2.0615    6.6549    4.2586 Q=    0.4100 A=    0.0000 R=    0.0000 C=    0.0000
 XYZ=   -3.1991    2.9929   -7.6711 Q=   -0.8200 A=    0.0000 R=    0.0000 C=    0.0000
 XYZ=   -4.1458    2.6715   -7.6476 Q=    0.4100 A=    0.0000 R=    0.0000 C=    0.0000
 XYZ=   -3.1874    3.9886   -7.7631 Q=    0.4100 A=    0.0000 R=    0.0000 C=    0.0000
 XYZ=   -6.9115    1.2671    5.0120 Q=   -0.8200 A=    0.0000 R=    0.0000 C=    0.0000
 XYZ=   -5.9983    0.8607    4.9804 Q=    0.4100 A=    0.0000 R=    0.0000 C=    0.0000
 XYZ=   -7.4869    0.7455    5.6420 Q=    0.4100 A=    0.0000 R=    0.0000 C=    0.0000
 XYZ=    3.8235   -5.1132   -7.7837 Q=   -0.8200 A=    0.0000 R=    0.0000 C=    0.0000
 XYZ=    4.5222   -5.3639   -8.4538 Q=    0.4100 A=    0.0000 R=    0.0000 C=    0.0000
 XYZ=    4.0948   -4.2705   -7.3187 Q=    0.4100 A=    0.0000 R=    0.0000 C=    0.0000
 XYZ=   -7.7292    3.6750   -2.9003 Q=   -0.8200 A=    0.0000 R=    0.0000 C=    0.0000
 XYZ=   -7.0412    3.5246   -3.6103 Q=    0.4100 A=    0.0000 R=    0.0000 C=    0.0000
 XYZ=   -8.6256    3.3884   -3.2387 Q=    0.4100 A=    0.0000 R=    0.0000 C=    0.0000
 XYZ=   -5.2195   -5.6400   -0.2046 Q=   -0.8200 A=    0.0000 R=    0.0000 C=    0.0000
 XYZ=   -5.6562   -5.6201   -1.1040 Q=    0.4100 A=    0.0000 R=    0.0000 C=    0.0000
 XYZ=   -5.2128   -6.5781    0.1419 Q=    0.4100 A=    0.0000 R=    0.0000 C=    0.0000
 XYZ=    0.6109    6.2201   -5.3242 Q=   -0.8200 A=    0.0000 R=    0.0000 C=    0.0000
 XYZ=   -0.2429    6.1161   -5.8343 Q=    0.4100 A=    0.0000 R=    0.0000 C=    0.0000
 XYZ=    1.3666    5.8413   -5.8585 Q=    0.4100 A=    0.0000 R=    0.0000 C=    0.0000
 XYZ=   -8.1402    5.0041    1.5429 Q=   -0.8200 A=    0.0000 R=    0.0000 C=    0.0000
 XYZ=   -7.6402    4.1528    1.3835 Q=    0.4100 A=    0.0000 R=    0.0000 C=    0.0000
 XYZ=   -9.0127    4.8000    1.9868 Q=    0.4100 A=    0.0000 R=    0.0000 C=    0.0000
 XYZ=    7.5777   -4.5765   -0.9923 Q=   -0.8200 A=    0.0000 R=    0.0000 C=    0.0000
 XYZ=    8.5757   -4.5305   -0.9490 Q=    0.4100 A=    0.0000 R=    0.0000 C=    0.0000
 XYZ=    7.3024   -5.0740   -1.8149 Q=    0.4100 A=    0.0000 R=    0.0000 C=    0.0000
 XYZ=   -5.8558   -1.4929    6.4450 Q=   -0.8200 A=    0.0000 R=    0.0000 C=    0.0000
 XYZ=   -5.4620   -0.9371    5.7129 Q=    0.4100 A=    0.0000 R=    0.0000 C=    0.0000
 XYZ=   -5.1686   -1.6431    7.1558 Q=    0.4100 A=    0.0000 R=    0.0000 C=    0.0000
 XYZ=   -4.6098   -5.4978    3.7809 Q=   -0.8200 A=    0.0000 R=    0.0000 C=    0.0000
 XYZ=   -3.8649   -5.2909    4.4153 Q=    0.4100 A=    0.0000 R=    0.0000 C=    0.0000
 XYZ=   -4.2382   -5.6282    2.8617 Q=    0.4100 A=    0.0000 R=    0.0000 C=    0.0000
 XYZ=    4.1460    6.7381    0.5148 Q=   -0.8200 A=    0.0000 R=    0.0000 C=    0.0000
 XYZ=    3.3292    7.2992    0.3811 Q=    0.4100 A=    0.0000 R=    0.0000 C=    0.0000
 XYZ=    4.8523    7.2806    0.9697 Q=    0.4100 A=    0.0000 R=    0.0000 C=    0.0000
 XYZ=    5.8315   -7.2985   -1.1907 Q=   -0.8200 A=    0.0000 R=    0.0000 C=    0.0000
 XYZ=    6.5319   -7.6960   -0.5979 Q=    0.4100 A=    0.0000 R=    0.0000 C=    0.0000
 XYZ=    6.2694   -6.7473   -1.9009 Q=    0.4100 A=    0.0000 R=    0.0000 C=    0.0000
 XYZ=    5.2558    4.2201   -2.8559 Q=   -0.8200 A=    0.0000 R=    0.0000 C=    0.0000
 XYZ=    6.1139    4.4212   -2.3834 Q=    0.4100 A=    0.0000 R=    0.0000 C=    0.0000
 XYZ=    5.3692    4.3822   -3.8362 Q=    0.4100 A=    0.0000 R=    0.0000 C=    0.0000
 XYZ=   -1.2037   -8.6848    3.2822 Q=   -0.8200 A=    0.0000 R=    0.0000 C=    0.0000
 XYZ=   -0.9620   -9.1850    2.4508 Q=    0.4100 A=    0.0000 R=    0.0000 C=    0.0000
 XYZ=   -1.4198   -7.7365    3.0496 Q=    0.4100 A=    0.0000 R=    0.0000 C=    0.0000
 XYZ=    8.0618   -0.6456   -1.7656 Q=   -0.8200 A=    0.0000 R=    0.0000 C=    0.0000
 XYZ=    7.9667    0.3287   -1.5613 Q=    0.4100 A=    0.0000 R=    0.0000 C=    0.0000
 XYZ=    8.3260   -1.1360   -0.9351 Q=    0.4100 A=    0.0000 R=    0.0000 C=    0.0000
 XYZ=   -1.4813   -8.9340   -0.2958 Q=   -0.8200 A=    0.0000 R=    0.0000 C=    0.0000
 XYZ=   -1.0938   -9.6011    0.3405 Q=    0.4100 A=    0.0000 R=    0.0000 C=    0.0000
 XYZ=   -2.1117   -9.3959   -0.9198 Q=    0.4100 A=    0.0000 R=    0.0000 C=    0.0000
 XYZ=   -8.2775   -0.8466    2.4559 Q=   -0.8200 A=    0.0000 R=    0.0000 C=    0.0000
 XYZ=   -7.6771   -1.2438    1.7618 Q=    0.4100 A=    0.0000 R=    0.0000 C=    0.0000
 XYZ=   -8.0227    0.1080    2.6101 Q=    0.4100 A=    0.0000 R=    0.0000 C=    0.0000
 XYZ=   -6.1092    5.0106    4.1619 Q=   -0.8200 A=    0.0000 R=    0.0000 C=    0.0000
 XYZ=   -6.7809    5.6838    3.8528 Q=    0.4100 A=    0.0000 R=    0.0000 C=    0.0000
 XYZ=   -6.5531    4.3515    4.7691 Q=    0.4100 A=    0.0000 R=    0.0000 C=    0.0000
 XYZ=   -1.9569    4.2290    7.8814 Q=   -0.8200 A=    0.0000 R=    0.0000 C=    0.0000
 XYZ=   -1.0754    4.5880    7.5745 Q=    0.4100 A=    0.0000 R=    0.0000 C=    0.0000
 XYZ=   -1.8340    3.3018    8.2354 Q=    0.4100 A=    0.0000 R=    0.0000 C=    0.0000
 XYZ=    1.8822    3.9547   -7.7175 Q=   -0.8200 A=    0.0000 R=    0.0000 C=    0.0000
 XYZ=    2.4198    4.5943   -7.1679 Q=    0.4100 A=    0.0000 R=    0.0000 C=    0.0000
 XYZ=    2.4606    3.1888   -7.9983 Q=    0.4100 A=    0.0000 R=    0.0000 C=    0.0000
 XYZ=   -9.5184    0.9453   -0.8569 Q=   -0.8200 A=    0.0000 R=    0.0000 C=    0.0000
 XYZ=   -9.7687    1.8535   -1.1924 Q=    0.4100 A=    0.0000 R=    0.0000 C=    0.0000
 XYZ=   -8.5255    0.8351   -0.9024 Q=    0.4100 A=    0.0000 R=    0.0000 C=    0.0000
 XYZ=   -1.4099   -5.7847   -8.2338 Q=   -0.8200 A=    0.0000 R=    0.0000 C=    0.0000
 XYZ=   -0.4556   -5.6434   -7.9705 Q=    0.4100 A=    0.0000 R=    0.0000 C=    0.0000
 XYZ=   -1.9427   -6.0452   -7.4286 Q=    0.4100 A=    0.0000 R=    0.0000 C=    0.0000
 XYZ=    6.9566    0.0194   -5.3813 Q=   -0.8200 A=    0.0000 R=    0.0000 C=    0.0000
 XYZ=    7.2314    0.8575   -4.9100 Q=    0.4100 A=    0.0000 R=    0.0000 C=    0.0000
 XYZ=    7.7238   -0.6220   -5.3952 Q=    0.4100 A=    0.0000 R=    0.0000 C=    0.0000
 XYZ=   -6.8219   -4.1799    0.9973 Q=   -0.8200 A=    0.0000 R=    0.0000 C=    0.0000
 XYZ=   -6.1275   -4.6702    0.4705 Q=    0.4100 A=    0.0000 R=    0.0000 C=    0.0000
 XYZ=   -6.5359   -4.1229    1.9538 Q=    0.4100 A=    0.0000 R=    0.0000 C=    0.0000
 XYZ=    0.9439    4.9683    8.0868 Q=   -0.8200 A=    0.0000 R=    0.0000 C=    0.0000
 XYZ=    1.1391    5.2651    9.0216 Q=    0.4100 A=    0.0000 R=    0.0000 C=    0.0000
 XYZ=    1.1741    3.9999    7.9897 Q=    0.4100 A=    0.0000 R=    0.0000 C=    0.0000
 XYZ=    1.5415   -5.2686   -8.3787 Q=   -0.8200 A=    0.0000 R=    0.0000 C=    0.0000
 XYZ=    1.2640   -6.1760   -8.0627 Q=    0.4100 A=    0.0000 R=    0.0000 C=    0.0000
 XYZ=    2.5079   -5.1230   -8.1668 Q=    0.4100 A=    0.0000 R=    0.0000 C=    0.0000
 XYZ=   -1.8636   -1.5506   -9.9009 Q=   -0.8200 A=    0.0000 R=    0.0000 C=    0.0000
 XYZ=   -1.6928   -2.4357  -10.3339 Q=    0.4100 A=    0.0000 R=    0.0000 C=    0.0000
 XYZ=   -2.4188   -1.6830   -9.0797 Q=    0.4100 A=    0.0000 R=    0.0000 C=    0.0000
 XYZ=   -3.1704   -8.4345    1.3731 Q=   -0.8200 A=    0.0000 R=    0.0000 C=    0.0000
 XYZ=   -4.0749   -8.2601    0.9838 Q=    0.4100 A=    0.0000 R=    0.0000 C=    0.0000
 XYZ=   -2.4994   -8.5118    0.6357 Q=    0.4100 A=    0.0000 R=    0.0000 C=    0.0000
 XYZ=    2.0154    6.1002    6.2235 Q=   -0.8200 A=    0.0000 R=    0.0000 C=    0.0000
 XYZ=    1.6784    6.9283    5.7754 Q=    0.4100 A=    0.0000 R=    0.0000 C=    0.0000
 XYZ=    1.3504    5.7964    6.9059 Q=    0.4100 A=    0.0000 R=    0.0000 C=    0.0000
 XYZ=    3.1359   -7.3077   -6.7721 Q=   -0.8200 A=    0.0000 R=    0.0000 C=    0.0000
 XYZ=    3.4424   -6.4121   -7.0946 Q=    0.4100 A=    0.0000 R=    0.0000 C=    0.0000
 XYZ=    3.9029   -7.7898   -6.3487 Q=    0.4100 A=    0.0000 R=    0.0000 C=    0.0000
 XYZ=   -0.0873    9.4492   -3.3766 Q=   -0.8200 A=    0.0000 R=    0.0000 C=    0.0000
 XYZ=   -0.6158    9.7760   -4.1602 Q=    0.4100 A=    0.0000 R=    0.0000 C=    0.0000
 XYZ=   -0.1578    8.4533   -3.3191 Q=    0.4100 A=    0.0000 R=    0.0000 C=    0.0000
 XYZ=    6.9908   -6.8821    2.1856 Q=   -0.8200 A=    0.0000 R=    0.0000 C=    0.0000
 XYZ=    7.3530   -6.0308    1.8059 Q=    0.4100 A=    0.0000 R=    0.0000 C=    0.0000
 XYZ=    6.1184   -6.7001    2.6392 Q=    0.4100 A=    0.0000 R=    0.0000 C=    0.0000
 XYZ=    3.2069    2.1969   -8.1536 Q=   -0.8200 A=    0.0000 R=    0.0000 C=    0.0000
 XYZ=    4.2012    2.1206   -8.0794 Q=    0.4100 A=    0.0000 R=    0.0000 C=    0.0000
 XYZ=    2.8991    1.7416   -8.9891 Q=    0.4100 A=    0.0000 R=    0.0000 C=    0.0000
 XYZ=   -6.3916   -5.5470   -2.6431 Q=   -0.8200 A=    0.0000 R=    0.0000 C=    0.0000
 XYZ=   -7.3625   -5.4673   -2.4173 Q=    0.4100 A=    0.0000 R=    0.0000 C=    0.0000
 XYZ=   -6.2106   -5.0766   -3.5069 Q=    0.4100 A=    0.0000 R=    0.0000 C=    0.0000
 XYZ=   -0.1230   -7.3495    5.2393 Q=   -0.8200 A=    0.0000 R=    0.0000 C=    0.0000
 XYZ=   -0.8570   -7.0790    5.8623 Q=    0.4100 A=    0.0000 R=    0.0000 C=    0.0000
 XYZ=   -0.4577   -8.0573    4.6172 Q=    0.4100 A=    0.0000 R=    0.0000 C=    0.0000
 XYZ=    0.0276    4.9277   -8.4688 Q=   -0.8200 A=    0.0000 R=    0.0000 C=    0.0000
 XYZ=   -0.5670    5.1659   -7.7009 Q=    0.4100 A=    0.0000 R=    0.0000 C=    0.0000
 XYZ=    0.9111    4.6136   -8.1212 Q=    0.4100 A=    0.0000 R=    0.0000 C=    0.0000
 XYZ=   -6.1195   -3.7707    3.2550 Q=   -0.8200 A=    0.0000 R=    0.0000 C=    0.0000
 XYZ=   -6.4873   -3.3904    4.1036 Q=    0.4100 A=    0.0000 R=    0.0000 C=    0.0000
 XYZ=   -5.5142   -4.5377    3.4683 Q=    0.4100 A=    0.0000 R=    0.0000 C=    0.0000
 XYZ=   -5.2236    6.5763    5.5385 Q=   -0.8200 A=    0.0000 R=    0.0000 C=    0.0000
 XYZ=   -6.0950    6.8829    5.9215 Q=    0.4100 A=    0.0000 R=    0.0000 C=    0.0000
 XYZ=   -5.3907    5.8573    4.8637 Q=    0.4100 A=    0.0000 R=    0.0000 C=    0.0000
 XYZ=    3.2380    5.4061   -6.3295 Q=   -0.8200 A=    0.0000 R=    0.0000 C=    0.0000
 XYZ=    3.9440    5.0153   -5.7388 Q=    0.4100 A=    0.0000 R=    0.0000 C=    0.0000
 XYZ=    3.4078    6.3843   -6.4495 Q=    0.4100 A=    0.0000 R=    0.0000 C=    0.0000
 XYZ=    0.2863   -4.1528    8.6597 Q=   -0.8200 A=    0.0000 R=    0.0000 C=    0.0000
 XYZ=    0.3999   -3.7579    7.7480 Q=    0.4100 A=    0.0000 R=    0.0000 C=    0.0000
 XYZ=    1.1028   -4.6780    8.8995 Q=    0.4100 A=    0.0000 R=    0.0000 C=    0.0000
 XYZ=    9.1680   -1.3946    0.2468 Q=   -0.8200 A=    0.0000 R=    0.0000 C=    0.0000
 XYZ=    9.4030   -2.3145    0.5607 Q=    0.4100 A=    0.0000 R=    0.0000 C=    0.0000
 XYZ=    8.8415   -0.8517    1.0206 Q=    0.4100 A=    0.0000 R=    0.0000 C=    0.0000
 XYZ=    6.2312   -0.2750   -7.7966 Q=   -0.8200 A=    0.0000 R=    0.0000 C=    0.0000
 XYZ=    6.6122   -0.2710   -6.8720 Q=    0.4100 A=    0.0000 R=    0.0000 C=    0.0000
 XYZ=    5.2937   -0.6220   -7.7692 Q=    0.4100 A=    0.0000 R=    0.0000 C=    0.0000
 XYZ=    0.5888    9.8155   -1.2070 Q=   -0.8200 A=    0.0000 R=    0.0000 C=    0.0000
 XYZ=    0.5174    9.7156   -2.1995 Q=    0.4100 A=    0.0000 R=    0.0000 C=    0.0000
 XYZ=    1.1731    9.0914   -0.8404 Q=    0.4100 A=    0.0000 R=    0.0000 C=    0.0000
 XYZ=   -3.0416   -6.8754   -6.6640 Q=   -0.8200 A=    0.0000 R=    0.0000 C=    0.0000
 XYZ=   -3.5188   -7.3171   -7.4238 Q=    0.4100 A=    0.0000 R=    0.0000 C=    0.0000
 XYZ=   -3.6903   -6.6893   -5.9261 Q=    0.4100 A=    0.0000 R=    0.0000 C=    0.0000
 XYZ=    6.2942    6.3692    3.4495 Q=   -0.8200 A=    0.0000 R=    0.0000 C=    0.0000
 XYZ=    5.4649    5.8487    3.6530 Q=    0.4100 A=    0.0000 R=    0.0000 C=    0.0000
 XYZ=    7.0497    5.7377    3.2749 Q=    0.4100 A=    0.0000 R=    0.0000 C=    0.0000
 XYZ=    7.8836    4.4464    2.9514 Q=   -0.8200 A=    0.0000 R=    0.0000 C=    0.0000
 XYZ=    8.2824    4.1006    3.8008 Q=    0.4100 A=    0.0000 R=    0.0000 C=    0.0000
 XYZ=    7.0729    3.9083    2.7205 Q=    0.4100 A=    0.0000 R=    0.0000 C=    0.0000
 XYZ=    1.0736   -7.4808   -7.6182 Q=   -0.8200 A=    0.0000 R=    0.0000 C=    0.0000
 XYZ=    0.4271   -8.0778   -7.1431 Q=    0.4100 A=    0.0000 R=    0.0000 C=    0.0000
 XYZ=    1.9348   -7.4511   -7.1106 Q=    0.4100 A=    0.0000 R=    0.0000 C=    0.0000
 XYZ=   -3.9111    9.3555   -1.4254 Q=   -0.8200 A=    0.0000 R=    0.0000 C=    0.0000
 XYZ=   -4.4282    9.6771   -0.6321 Q=    0.4100 A=    0.0000 R=    0.0000 C=    0.0000
 XYZ=   -2.9506    9.2394   -1.1724 Q=    0.4100 A=    0.0000 R=    0.0000 C=    0.0000
 XYZ=   -4.0340   -2.4297    7.7483 Q=   -0.8200 A=    0.0000 R=    0.0000 C=    0.0000
 XYZ=   -3.2142   -1.9726    8.0932 Q=    0.4100 A=    0.0000 R=    0.0000 C=    0.0000
 XYZ=   -4.2573   -3.2047    8.3396 Q=    0.4100 A=    0.0000 R=    0.0000 C=    0.0000
 XYZ=    4.0368   -1.1828    8.0588 Q=   -0.8200 A=    0.0000 R=    0.0000 C=    0.0000
 XYZ=    4.3106   -1.0988    9.0169 Q=    0.4100 A=    0.0000 R=    0.0000 C=    0.0000
 XYZ=    4.7995   -0.9161    7.4696 Q=    0.4100 A=    0.0000 R=    0.0000 C=    0.0000
 XYZ=   -2.9176    0.7791    9.0714 Q=   -0.8200 A=    0.0000 R=    0.0000 C=    0.0000
 XYZ=   -2.4060   -0.0640    8.9052 Q=    0.4100 A=    0.0000 R=    0.0000 C=    0.0000
 XYZ=   -3.8963    0.5753    9.0978 Q=    0.4100 A=    0.0000 R=    0.0000 C=    0.0000
 XYZ=   -3.0302    2.7213  -10.0419 Q=   -0.8200 A=    0.0000 R=    0.0000 C=    0.0000
 XYZ=   -3.0562    2.6648   -9.0438 Q=    0.4100 A=    0.0000 R=    0.0000 C=    0.0000
 XYZ=   -3.1035    1.8025  -10.4297 Q=    0.4100 A=    0.0000 R=    0.0000 C=    0.0000
 XYZ=   -1.2612    2.3805    9.0492 Q=   -0.8200 A=    0.0000 R=    0.0000 C=    0.0000
 XYZ=   -2.0101    1.7206    9.1108 Q=    0.4100 A=    0.0000 R=    0.0000 C=    0.0000
 XYZ=   -1.1414    2.8321    9.9333 Q=    0.4100 A=    0.0000 R=    0.0000 C=    0.0000
 XYZ=   -8.4185    5.7824   -2.3293 Q=   -0.8200 A=    0.0000 R=    0.0000 C=    0.0000
 XYZ=   -7.6774    6.3962   -2.0570 Q=    0.4100 A=    0.0000 R=    0.0000 C=    0.0000
 XYZ=   -8.0466    4.8732   -2.5163 Q=    0.4100 A=    0.0000 R=    0.0000 C=    0.0000
 XYZ=   -5.3025   -6.6121   -5.3959 Q=   -0.8200 A=    0.0000 R=    0.0000 C=    0.0000
 XYZ=   -5.4580   -5.6842   -5.0569 Q=    0.4100 A=    0.0000 R=    0.0000 C=    0.0000
 XYZ=   -5.5210   -7.2709   -4.6760 Q=    0.4100 A=    0.0000 R=    0.0000 C=    0.0000
 XYZ=    8.6023    3.2095   -0.7443 Q=   -0.8200 A=    0.0000 R=    0.0000 C=    0.0000
 XYZ=    8.1384    2.3354   -0.5999 Q=    0.4100 A=    0.0000 R=    0.0000 C=    0.0000
 XYZ=    9.1292    3.4460    0.0721 Q=    0.4100 A=    0.0000 R=    0.0000 C=    0.0000
 XYZ=   -1.4712   -8.6628   -6.3964 Q=   -0.8200 A=    0.0000 R=    0.0000 C=    0.0000
 XYZ=   -1.9878   -7.8068   -6.3755 Q=    0.4100 A=    0.0000 R=    0.0000 C=    0.0000
 XYZ=   -1.7201   -9.1824   -7.2139 Q=    0.4100 A=    0.0000 R=    0.0000 C=    0.0000
 XYZ=    0.0832   -0.4032  -10.3931 Q=   -0.8200 A=    0.0000 R=    0.0000 C=    0.0000
 XYZ=    0.6801   -1.2046  -10.4340 Q=    0.4100 A=    0.0000 R=    0.0000 C=    0.0000
 XYZ=   -0.8080   -0.6699  -10.0260 Q=    0.4100 A=    0.0000 R=    0.0000 C=    0.0000
 XYZ=    8.7869   -1.4468   -5.0575 Q=   -0.8200 A=    0.0000 R=    0.0000 C=    0.0000
 XYZ=    9.3840   -1.1709   -4.3043 Q=    0.4100 A=    0.0000 R=    0.0000 C=    0.0000
 XYZ=    8.2759   -2.2654   -4.7950 Q=    0.4100 A=    0.0000 R=    0.0000 C=    0.0000
 XYZ=   -4.0166    5.7418    7.4593 Q=   -0.8200 A=    0.0000 R=    0.0000 C=    0.0000
 XYZ=   -4.3371    6.0296    6.5567 Q=    0.4100 A=    0.0000 R=    0.0000 C=    0.0000
 XYZ=   -3.2340    5.1281    7.3550 Q=    0.4100 A=    0.0000 R=    0.0000 C=    0.0000
 XYZ=   -5.9063   -3.4665   -7.1223 Q=   -0.8200 A=    0.0000 R=    0.0000 C=    0.0000
 XYZ=   -5.6664   -4.1020   -7.8563 Q=    0.4100 A=    0.0000 R=    0.0000 C=    0.0000
 XYZ=   -6.1467   -2.5789   -7.5153 Q=    0.4100 A=    0.0000 R=    0.0000 C=    0.0000
 XYZ=    9.5263   -3.5540    1.2111 Q=   -0.8200 A=    0.0000 R=    0.0000 C=    0.0000
 XYZ=    8.7507   -4.1222    1.4862 Q=    0.4100 A=    0.0000 R=    0.0000 C=    0.0000
 XYZ=   10.3202   -4.1363    1.0355 Q=    0.4100 A=    0.0000 R=    0.0000 C=    0.0000
 XYZ=   -6.7077    7.7433   -0.9770 Q=   -0.8200 A=    0.0000 R=    0.0000 C=    0.0000
 XYZ=   -6.0059    8.0895   -1.5996 Q=    0.4100 A=    0.0000 R=    0.0000 C=    0.0000
 XYZ=   -7.0299    8.4869   -0.3912 Q=    0.4100 A=    0.0000 R=    0.0000 C=    0.0000
 XYZ=   -7.2741    3.5312    5.8791 Q=   -0.8200 A=    0.0000 R=    0.0000 C=    0.0000
 XYZ=   -7.2309    3.5159    6.8780 Q=    0.4100 A=    0.0000 R=    0.0000 C=    0.0000
 XYZ=   -7.0599    2.6219    5.5223 Q=    0.4100 A=    0.0000 R=    0.0000 C=    0.0000
 XYZ=    0.5325   -4.0570  -10.1266 Q=   -0.8200 A=    0.0000 R=    0.0000 C=    0.0000
 XYZ=    1.2061   -3.3802  -10.4238 Q=    0.4100 A=    0.0000 R=    0.0000 C=    0.0000
 XYZ=    0.8927   -4.5642   -9.3436 Q=    0.4100 A=    0.0000 R=    0.0000 C=    0.0000
 XYZ=    4.0140   -2.0094  -10.1256 Q=   -0.8200 A=    0.0000 R=    0.0000 C=    0.0000
 XYZ=    3.8304   -1.7438   -9.1792 Q=    0.4100 A=    0.0000 R=    0.0000 C=    0.0000
 XYZ=    4.8557   -2.5481  -10.1634 Q=    0.4100 A=    0.0000 R=    0.0000 C=    0.0000
 XYZ=    5.9879   -0.7895    6.9720 Q=   -0.8200 A=    0.0000 R=    0.0000 C=    0.0000
 XYZ=    6.5015   -0.3333    7.6988 Q=    0.4100 A=    0.0000 R=    0.0000 C=    0.0000
 XYZ=    6.4672   -1.6233    6.6981 Q=    0.4100 A=    0.0000 R=    0.0000 C=    0.0000
 XYZ=   -6.4785    4.1494   -6.9409 Q=   -0.8200 A=    0.0000 R=    0.0000 C=    0.0000
 XYZ=   -6.1348    4.7359   -7.6744 Q=    0.4100 A=    0.0000 R=    0.0000 C=    0.0000
 XYZ=   -6.2515    3.1965   -7.1422 Q=    0.4100 A=    0.0000 R=    0.0000 C=    0.0000
 XYZ=   -1.1308  -10.3458   -4.7339 Q=   -0.8200 A=    0.0000 R=    0.0000 C=    0.0000
 XYZ=   -0.7248   -9.8374   -3.9744 Q=    0.4100 A=    0.0000 R=    0.0000 C=    0.0000
 XYZ=   -1.4702   -9.7035   -5.4212 Q=    0.4100 A=    0.0000 R=    0.0000 C=    0.0000
 XYZ=   -3.6269    8.4900    4.7497 Q=   -0.8200 A=    0.0000 R=    0.0000 C=    0.0000
 XYZ=   -4.1643    7.6551    4.8689 Q=    0.4100 A=    0.0000 R=    0.0000 C=    0.0000
 XYZ=   -4.1962    9.2854    4.9579 Q=    0.4100 A=    0.0000 R=    0.0000 C=    0.0000
 XYZ=   -3.7296    9.4518   -3.8308 Q=   -0.8200 A=    0.0000 R=    0.0000 C=    0.0000
 XYZ=   -3.7440    9.5693   -2.8378 Q=    0.4100 A=    0.0000 R=    0.0000 C=    0.0000
 XYZ=   -3.9470    8.5023   -4.0572 Q=    0.4100 A=    0.0000 R=    0.0000 C=    0.0000
 XYZ=    9.8462   -0.9011   -3.1016 Q=   -0.8200 A=    0.0000 R=    0.0000 C=    0.0000
 XYZ=    9.1257   -0.7938   -2.4164 Q=    0.4100 A=    0.0000 R=    0.0000 C=    0.0000
 XYZ=   10.7032   -1.1467   -2.6484 Q=    0.4100 A=    0.0000 R=    0.0000 C=    0.0000
 XYZ=   -5.8109   -7.8591   -3.2580 Q=   -0.8200 A=    0.0000 R=    0.0000 C=    0.0000
 XYZ=   -5.9283   -6.9292   -2.9094 Q=    0.4100 A=    0.0000 R=    0.0000 C=    0.0000
 XYZ=   -6.7072   -8.2582   -3.4513 Q=    0.4100 A=    0.0000 R=    0.0000 C=    0.0000
 XYZ=   -7.7615    6.3468    3.3632 Q=   -0.8200 A=    0.0000 R=    0.0000 C=    0.0000
 XYZ=   -8.2584    5.8947    4.1040 Q=    0.4100 A=    0.0000 R=    0.0000 C=    0.0000
 XYZ=   -7.9565    5.8824    2.4992 Q=    0.4100 A=    0.0000 R=    0.0000 C=    0.0000
 XYZ=   -7.1571   -3.1484    5.1833 Q=   -0.8200 A=    0.0000 R=    0.0000 C=    0.0000
 XYZ=   -7.9470   -2.5482    5.0575 Q=    0.4100 A=    0.0000 R=    0.0000 C=    0.0000
 XYZ=   -6.4576   -2.6715    5.7155 Q=    0.4100 A=    0.0000 R=    0.0000 C=    0.0000
 XYZ=    0.0545    9.0058    5.4425 Q=   -0.8200 A=    0.0000 R=    0.0000 C=    0.0000
 XYZ=    0.6368    8.3001    5.0388 Q=    0.4100 A=    0.0000 R=    0.0000 C=    0.0000
 XYZ=   -0.7253    8.5749    5.8966 Q=    0.4100 A=    0.0000 R=    0.0000 C=    0.0000
 XYZ=  -10.0118    1.7367    2.8583 Q=   -0.8200 A=    0.0000 R=    0.0000 C=    0.0000
 XYZ=   -9.0497    1.4930    2.9806 Q=    0.4100 A=    0.0000 R=    0.0000 C=    0.0000
 XYZ=  -10.4565    1.0563    2.2756 Q=    0.4100 A=    0.0000 R=    0.0000 C=    0.0000
 XYZ=    1.8926    1.1726  -10.1322 Q=   -0.8200 A=    0.0000 R=    0.0000 C=    0.0000
 XYZ=    1.5995    2.0605  -10.4870 Q=    0.4100 A=    0.0000 R=    0.0000 C=    0.0000
 XYZ=    1.1591    0.5047  -10.2585 Q=    0.4100 A=    0.0000 R=    0.0000 C=    0.0000
 XYZ=    2.3233    3.2576   10.1485 Q=   -0.8200 A=    0.0000 R=    0.0000 C=    0.0000
 XYZ=    3.3058    3.2457    9.9623 Q=    0.4100 A=    0.0000 R=    0.0000 C=    0.0000
 XYZ=    1.8394    2.7788    9.4160 Q=    0.4100 A=    0.0000 R=    0.0000 C=    0.0000
 XYZ=   -2.0215   -6.5761    6.4853 Q=   -0.8200 A=    0.0000 R=    0.0000 C=    0.0000
 XYZ=   -1.7216   -6.2326    7.3753 Q=    0.4100 A=    0.0000 R=    0.0000 C=    0.0000
 XYZ=   -2.9260   -6.9929    6.5765 Q=    0.4100 A=    0.0000 R=    0.0000 C=    0.0000
 XYZ=    7.6200   -8.1290    0.2494 Q=   -0.8200 A=    0.0000 R=    0.0000 C=    0.0000
 XYZ=    7.1470   -7.5672    0.9282 Q=    0.4100 A=    0.0000 R=    0.0000 C=    0.0000
 XYZ=    7.8797   -9.0021    0.6620 Q=    0.4100 A=    0.0000 R=    0.0000 C=    0.0000
 XYZ=   -3.3911    5.3703   -8.0750 Q=   -0.8200 A=    0.0000 R=    0.0000 C=    0.0000
 XYZ=   -2.9265    5.6946   -8.8990 Q=    0.4100 A=    0.0000 R=    0.0000 C=    0.0000
 XYZ=   -4.3669    5.5800   -8.1381 Q=    0.4100 A=    0.0000 R=    0.0000 C=    0.0000
 XYZ=    5.6802    4.8400   -5.3036 Q=   -0.8200 A=    0.0000 R=    0.0000 C=    0.0000
 XYZ=    6.3552    5.5721   -5.2117 Q=    0.4100 A=    0.0000 R=    0.0000 C=    0.0000
 XYZ=    5.8885    4.2946   -6.1155 Q=    0.4100 A=    0.0000 R=    0.0000 C=    0.0000
 XYZ=    6.6769   -3.8728   -7.5992 Q=   -0.8200 A=    0.0000 R=    0.0000 C=    0.0000
 XYZ=    7.2120   -4.3814   -6.9246 Q=    0.4100 A=    0.0000 R=    0.0000 C=    0.0000
 XYZ=    6.4337   -4.4785   -8.3570 Q=    0.4100 A=    0.0000 R=    0.0000 C=    0.0000
 XYZ=   -2.5729    9.8880    2.9684 Q=   -0.8200 A=    0.0000 R=    0.0000 C=    0.0000
 XYZ=   -2.9551    9.2757    3.6606 Q=    0.4100 A=    0.0000 R=    0.0000 C=    0.0000
 XYZ=   -3.2911   10.4939    2.6262 Q=    0.4100 A=    0.0000 R=    0.0000 C=    0.0000
 XYZ=   -5.3187   -7.9569    0.4287 Q=   -0.8200 A=    0.0000 R=    0.0000 C=    0.0000
 XYZ=   -5.9833   -7.9423    1.1758 Q=    0.4100 A=    0.0000 R=    0.0000 C=    0.0000
 XYZ=   -5.6146   -8.6104   -0.2680 Q=    0.4100 A=    0.0000 R=    0.0000 C=    0.0000
 XYZ=    5.3945    2.0241   -7.8956 Q=   -0.8200 A=    0.0000 R=    0.0000 C=    0.0000
 XYZ=    6.0538    2.5591   -7.3672 Q=    0.4100 A=    0.0000 R=    0.0000 C=    0.0000
 XYZ=    5.7482    1.0986   -8.0307 Q=    0.4100 A=    0.0000 R=    0.0000 C=    0.0000
 XYZ=    8.5217    3.1926    5.1063 Q=   -0.8200 A=    0.0000 R=    0.0000 C=    0.0000
 XYZ=    7.7949    2.5729    4.8102 Q=    0.4100 A=    0.0000 R=    0.0000 C=    0.0000
 XYZ=    9.3197    2.6598    5.3882 Q=    0.4100 A=    0.0000 R=    0.0000 C=    0.0000
 XYZ=  -10.2362   -0.1265    1.3479 Q=   -0.8200 A=    0.0000 R=    0.0000 C=    0.0000
 XYZ=   -9.9696    0.3523    0.5115 Q=    0.4100 A=    0.0000 R=    0.0000 C=    0.0000
 XYZ=   -9.4174   -0.4501    1.8222 Q=    0.4100 A=    0.0000 R=    0.0000 C=    0.0000
 XYZ=    5.4819    2.0448    8.0723 Q=   -0.8200 A=    0.0000 R=    0.0000 C=    0.0000
 XYZ=    6.0790    2.5682    7.4643 Q=    0.4100 A=    0.0000 R=    0.0000 C=    0.0000
 XYZ=    5.2122    2.6162    8.8474 Q=    0.4100 A=    0.0000 R=    0.0000 C=    0.0000
 XYZ=   -0.6638  -10.3220    1.3230 Q=   -0.8200 A=    0.0000 R=    0.0000 C=    0.0000
 XYZ=    0.2489  -10.7306    1.3237 Q=    0.4100 A=    0.0000 R=    0.0000 C=    0.0000
 XYZ=   -1.3522  -11.0444    1.2576 Q=    0.4100 A=    0.0000 R=    0.0000 C=    0.0000
 XYZ=   -0.3570    9.9618    3.3966 Q=   -0.8200 A=    0.0000 R=    0.0000 C=    0.0000
 XYZ=   -1.3107    9.9288    3.0976 Q=    0.4100 A=    0.0000 R=    0.0000 C=    0.0000
 XYZ=   -0.2680    9.4990    4.2786 Q=    0.4100 A=    0.0000 R=    0.0000 C=    0.0000
 XYZ=   10.2754    1.5159    1.1872 Q=   -0.8200 A=    0.0000 R=    0.0000 C=    0.0000
 XYZ=    9.5735    0.8900    1.5274 Q=    0.4100 A=    0.0000 R=    0.0000 C=    0.0000
 XYZ=    9.9899    2.4595    1.3546 Q=    0.4100 A=    0.0000 R=    0.0000 C=    0.0000
 XYZ=   -3.1116    0.4649  -10.7166 Q=   -0.8200 A=    0.0000 R=    0.0000 C=    0.0000
 XYZ=   -2.6321   -0.4069  -10.6162 Q=    0.4100 A=    0.0000 R=    0.0000 C=    0.0000
 XYZ=   -4.0032    0.3079  -11.1413 Q=    0.4100 A=    0.0000 R=    0.0000 C=    0.0000
 XYZ=    6.2279    7.6062    1.4303 Q=   -0.8200 A=    0.0000 R=    0.0000 C=    0.0000
 XYZ=    6.5850    8.5295    1.5723 Q=    0.4100 A=    0.0000 R=    0.0000 C=    0.0000
 XYZ=    6.1561    7.1376    2.3108 Q=    0.4100 A=    0.0000 R=    0.0000 C=    0.0000
 XYZ=   -9.0035   -1.7511    4.5696 Q=   -0.8200 A=    0.0000 R=    0.0000 C=    0.0000
 XYZ=   -8.6733   -1.4397    3.6785 Q=    0.4100 A=    0.0000 R=    0.0000 C=    0.0000
 XYZ=   -9.6916   -2.4650    4.4391 Q=    0.4100 A=    0.0000 R=    0.0000 C=    0.0000
 XYZ=    5.4456    5.2272    6.9402 Q=   -0.8200 A=    0.0000 R=    0.0000 C=    0.0000
 XYZ=    5.9952    6.0569    6.8417 Q=    0.4100 A=    0.0000 R=    0.0000 C=    0.0000
 XYZ=    6.0346    4.4244    6.8473 Q=    0.4100 A=    0.0000 R=    0.0000 C=    0.0000
 XYZ=   -5.9424   -6.5294    5.3045 Q=   -0.8200 A=    0.0000 R=    0.0000 C=    0.0000
 XYZ=   -5.3805   -5.9969    4.6714 Q=    0.4100 A=    0.0000 R=    0.0000 C=    0.0000
 XYZ=   -6.7363   -5.9880    5.5816 Q=    0.4100 A=    0.0000 R=    0.0000 C=    0.0000
 XYZ=   -2.1074    8.1263    6.2712 Q=   -0.8200 A=    0.0000 R=    0.0000 C=    0.0000
 XYZ=   -2.7726    8.4025    5.5774 Q=    0.4100 A=    0.0000 R=    0.0000 C=    0.0000
 XYZ=   -2.5116    8.2292    7.1801 Q=    0.4100 A=    0.0000 R=    0.0000 C=    0.0000
 XYZ=    7.3772    4.9060   -1.8190 Q=   -0.8200 A=    0.0000 R=    0.0000 C=    0.0000
 XYZ=    7.9367    4.1945   -1.3939 Q=    0.4100 A=    0.0000 R=    0.0000 C=    0.0000
 XYZ=    7.4411    5.7463   -1.2806 Q=    0.4100 A=    0.0000 R=    0.0000 C=    0.0000
 XYZ=   -8.0482   -0.3736    6.3607 Q=   -0.8200 A=    0.0000 R=    0.0000 C=    0.0000
 XYZ=   -8.7090   -0.9481    5.8777 Q=    0.4100 A=    0.0000 R=    0.0000 C=    0.0000
 XYZ=   -7.2272   -0.9076    6.5628 Q=    0.4100 A=    0.0000 R=    0.0000 C=    0.0000
 XYZ=    1.7265   -2.0330  -10.7703 Q=   -0.8200 A=    0.0000 R=    0.0000 C=    0.0000
 XYZ=    2.6434   -2.1028  -10.3771 Q=    0.4100 A=    0.0000 R=    0.0000 C=    0.0000
 XYZ=    1.7974   -1.8487  -11.7506 Q=    0.4100 A=    0.0000 R=    0.0000 C=    0.0000
 XYZ=    8.5763   -5.9516   -4.1948 Q=   -0.8200 A=    0.0000 R=    0.0000 C=    0.0000
 XYZ=    8.4379   -5.7764   -5.1696 Q=    0.4100 A=    0.0000 R=    0.0000 C=    0.0000
 XYZ=    9.4714   -6.3754   -4.0562 Q=    0.4100 A=    0.0000 R=    0.0000 C=    0.0000
 XYZ=   -0.6055   -2.5639   10.2798 Q=   -0.8200 A=    0.0000 R=    0.0000 C=    0.0000
 XYZ=   -0.3022   -3.2237    9.5922 Q=    0.4100 A=    0.0000 R=    0.0000 C=    0.0000
 XYZ=   -1.1617   -3.0309   10.9672 Q=    0.4100 A=    0.0000 R=    0.0000 C=    0.0000
 XYZ=    1.4525    3.7081  -10.7567 Q=   -0.8200 A=    0.0000 R=    0.0000 C=    0.0000
 XYZ=    0.7653    3.9380  -10.0675 Q=    0.4100 A=    0.0000 R=    0.0000 C=    0.0000
 XYZ=    1.9079    4.5435  -11.0648 Q=    0.4100 A=    0.0000 R=    0.0000 C=    0.0000
 XYZ=   -2.9875  -10.4131   -1.4271 Q=   -0.8200 A=    0.0000 R=    0.0000 C=    0.0000
 XYZ=   -2.7874  -11.0397   -2.1804 Q=    0.4100 A=    0.0000 R=    0.0000 C=    0.0000
 XYZ=   -3.9350  -10.1009   -1.4962 Q=    0.4100 A=    0.0000 R=    0.0000 C=    0.0000
 XYZ=   -7.1660    8.5204    2.8610 Q=   -0.8200 A=    0.0000 R=    0.0000 C=    0.0000
 XYZ=   -7.4216    7.5640    3.0023 Q=    0.4100 A=    0.0000 R=    0.0000 C=    0.0000
 XYZ=   -7.3024    9.0307    3.7101 Q=    0.4100 A=    0.0000 R=    0.0000 C=    0.0000
 XYZ=   -5.2251   -9.6348   -1.4870 Q=   -0.8200 A=    0.0000 R=    0.0000 C=    0.0000
 XYZ=   -5.9866  -10.2745   -1.5919 Q=    0.4100 A=    0.0000 R=    0.0000 C=    0.0000
 XYZ=   -5.3720   -8.8420   -2.0787 Q=    0.4100 A=    0.0000 R=    0.0000 C=    0.0000
 XYZ=   -1.5000   -3.6314  -10.8437 Q=   -0.8200 A=    0.0000 R=    0.0000 C=    0.0000
 XYZ=   -0.6115   -3.8318  -10.4310 Q=    0.4100 A=    0.0000 R=    0.0000 C=    0.0000
 XYZ=   -1.3992   -3.5664  -11.8366 Q=    0.4100 A=    0.0000 R=    0.0000 C=    0.0000
 XYZ=   -3.2365   -9.9708    3.1165 Q=   -0.8200 A=    0.0000 R=    0.0000 C=    0.0000
 XYZ=   -2.4063   -9.7020    3.6047 Q=    0.4100 A=    0.0000 R=    0.0000 C=    0.0000
 XYZ=   -3.3846   -9.3522    2.3449 Q=    0.4100 A=    0.0000 R=    0.0000 C=    0.0000
 XYZ=   -2.4347    5.6334    9.9672 Q=   -0.8200 A=    0.0000 R=    0.0000 C=    0.0000
 XYZ=   -2.8004    6.5133    9.6636 Q=    0.4100 A=    0.0000 R=    0.0000 C=    0.0000
 XYZ=   -2.2821    5.0442    9.1738 Q=    0.4100 A=    0.0000 R=    0.0000 C=    0.0000
 XYZ=    7.3890   -2.1006   -8.8759 Q=   -0.8200 A=    0.0000 R=    0.0000 C=    0.0000
 XYZ=    7.0020   -1.2253   -8.5857 Q=    0.4100 A=    0.0000 R=    0.0000 C=    0.0000
 XYZ=    7.2485   -2.7818   -8.1573 Q=    0.4100 A=    0.0000 R=    0.0000 C=    0.0000
 XYZ=   -1.6668   -5.7653    8.5570 Q=   -0.8200 A=    0.0000 R=    0.0000 C=    0.0000
 XYZ=   -1.0072   -5.0171    8.6287 Q=    0.4100 A=    0.0000 R=    0.0000 C=    0.0000
 XYZ=   -2.5605   -5.4538    8.8799 Q=    0.4100 A=    0.0000 R=    0.0000 C=    0.0000
 XYZ=   -2.7076   -6.5973   -9.9420 Q=   -0.8200 A=    0.0000 R=    0.0000 C=    0.0000
 XYZ=   -3.1843   -5.8222  -10.3569 Q=    0.4100 A=    0.0000 R=    0.0000 C=    0.0000
 XYZ=   -2.0801   -6.2645   -9.2380 Q=    0.4100 A=    0.0000 R=    0.0000 C=    0.0000
 XYZ=    8.1142    2.5876   -5.0957 Q=   -0.8200 A=    0.0000 R=    0.0000 C=    0.0000
 XYZ=    8.1372    3.4445   -4.5807 Q=    0.4100 A=    0.0000 R=    0.0000 C=    0.0000
 XYZ=    8.8644    1.9982   -4.7957 Q=    0.4100 A=    0.0000 R=    0.0000 C=    0.0000
 XYZ=  -10.1446    4.9395   -1.0019 Q=   -0.8200 A=    0.0000 R=    0.0000 C=    0.0000
 XYZ=   -9.5225    5.4069   -1.6300 Q=    0.4100 A=    0.0000 R=    0.0000 C=    0.0000
 XYZ=   -9.8611    5.1159   -0.0592 Q=    0.4100 A=    0.0000 R=    0.0000 C=    0.0000
 XYZ=   -8.4102   -5.9077    1.7323 Q=   -0.8200 A=    0.0000 R=    0.0000 C=    0.0000
 XYZ=   -8.9548   -6.4107    1.0611 Q=    0.4100 A=    0.0000 R=    0.0000 C=    0.0000
 XYZ=   -7.7775   -5.2961    1.2571 Q=    0.4100 A=    0.0000 R=    0.0000 C=    0.0000
 XYZ=   -9.9753    4.2011    2.6889 Q=   -0.8200 A=    0.0000 R=    0.0000 C=    0.0000
 XYZ=  -10.8127    4.4862    3.1554 Q=    0.4100 A=    0.0000 R=    0.0000 C=    0.0000
 XYZ=   -9.9685    3.2055    2.5953 Q=    0.4100 A=    0.0000 R=    0.0000 C=    0.0000
 XYZ=   -0.9474    0.6349  -12.0977 Q=   -0.8200 A=    0.0000 R=    0.0000 C=    0.0000
 XYZ=   -0.5202    0.1840  -11.3139 Q=    0.4100 A=    0.0000 R=    0.0000 C=    0.0000
 XYZ=   -1.9089    0.8184  -11.8933 Q=    0.4100 A=    0.0000 R=    0.0000 C=    0.0000
 XYZ=    9.5538    3.7490    1.4601 Q=   -0.8200 A=    0.0000 R=    0.0000 C=    0.0000
 XYZ=    8.7742    4.0862    1.9878 Q=    0.4100 A=    0.0000 R=    0.0000 C=    0.0000
 XYZ=   10.3985    4.1378    1.8281 Q=    0.4100 A=    0.0000 R=    0.0000 C=    0.0000
 XYZ=    7.1408    3.3357    7.0123 Q=   -0.8200 A=    0.0000 R=    0.0000 C=    0.0000
 XYZ=    7.6400    3.3676    6.1464 Q=    0.4100 A=    0.0000 R=    0.0000 C=    0.0000
 XYZ=    7.7884    3.3871    7.7726 Q=    0.4100 A=    0.0000 R=    0.0000 C=    0.0000
 XYZ=   -0.4902    5.8600  -10.4861 Q=   -0.8200 A=    0.0000 R=    0.0000 C=    0.0000
 XYZ=   -1.1607    5.2421  -10.8967 Q=    0.4100 A=    0.0000 R=    0.0000 C=    0.0000
 XYZ=   -0.1814    5.4837   -9.6125 Q=    0.4100 A=    0.0000 R=    0.0000 C=    0.0000
 XYZ=    7.7882    6.6894   -0.1534 Q=   -0.8200 A=    0.0000 R=    0.0000 C=    0.0000
 XYZ=    6.9992    7.0684    0.3301 Q=    0.4100 A=    0.0000 R=    0.0000 C=    0.0000
 XYZ=    8.3041    6.0958    0.4643 Q=    0.4100 A=    0.0000 R=    0.0000 C=    0.0000
 XYZ=    6.9188    3.5162   -6.9511 Q=   -0.8200 A=    0.0000 R=    0.0000 C=    0.0000
 XYZ=    7.5353    4.2136   -7.3165 Q=    0.4100 A=    0.0000 R=    0.0000 C=    0.0000
 XYZ=    7.3797    3.0141   -6.2193 Q=    0.4100 A=    0.0000 R=    0.0000 C=    0.0000
 XYZ=   -6.9109    1.0098   -8.9823 Q=   -0.8200 A=    0.0000 R=    0.0000 C=    0.0000
 XYZ=   -7.7289    1.5527   -8.7918 Q=    0.4100 A=    0.0000 R=    0.0000 C=    0.0000
 XYZ=   -7.1455    0.0377   -8.9690 Q=    0.4100 A=    0.0000 R=    0.0000 C=    0.0000
 XYZ=   -5.7168   -6.7882   -7.7190 Q=   -0.8200 A=    0.0000 R=    0.0000 C=    0.0000
 XYZ=   -5.0453   -7.4122   -8.1186 Q=    0.4100 A=    0.0000 R=    0.0000 C=    0.0000
 XYZ=   -5.5842   -6.7457   -6.7287 Q=    0.4100 A=    0.0000 R=    0.0000 C=    0.0000
 XYZ=   -9.8082    3.0355   -3.7477 Q=   -0.8200 A=    0.0000 R=    0.0000 C=    0.0000
 XYZ=  -10.3415    2.8795   -2.9162 Q=    0.4100 A=    0.0000 R=    0.0000 C=    0.0000
 XYZ=  -10.0624    2.3587   -4.4386 Q=    0.4100 A=    0.0000 R=    0.0000 C=    0.0000
 XYZ=    9.8358   -5.2051   -1.1862 Q=   -0.8200 A=    0.0000 R=    0.0000 C=    0.0000
 XYZ=   10.2096   -4.9140   -2.0669 Q=    0.4100 A=    0.0000 R=    0.0000 C=    0.0000
 XYZ=    9.7116   -6.1974   -1.1884 Q=    0.4100 A=    0.0000 R=    0.0000 C=    0.0000
 XYZ=    6.6715    0.2570    9.0915 Q=   -0.8200 A=    0.0000 R=    0.0000 C=    0.0000
 XYZ=    6.0986    0.9656    8.6795 Q=    0.4100 A=    0.0000 R=    0.0000 C=    0.0000
 XYZ=    7.6059    0.5993    9.1900 Q=    0.4100 A=    0.0000 R=    0.0000 C=    0.0000
 XYZ=    8.3580    4.8917   -3.9948 Q=   -0.8200 A=    0.0000 R=    0.0000 C=    0.0000
 XYZ=    7.7708    4.6142   -3.2343 Q=    0.4100 A=    0.0000 R=    0.0000 C=    0.0000
 XYZ=    9.3008    4.9792   -3.6730 Q=    0.4100 A=    0.0000 R=    0.0000 C=    0.0000
 XYZ=   -8.6246   -5.3245   -2.1502 Q=   -0.8200 A=    0.0000 R=    0.0000 C=    0.0000
 XYZ=   -9.1867   -4.6865   -1.6238 Q=    0.4100 A=    0.0000 R=    0.0000 C=    0.0000
 XYZ=   -9.0437   -6.2323   -2.1307 Q=    0.4100 A=    0.0000 R=    0.0000 C=    0.0000
 XYZ=    1.4398   -9.1066   -9.3032 Q=   -0.8200 A=    0.0000 R=    0.0000 C=    0.0000
 XYZ=    1.4927   -8.7139  -10.2214 Q=    0.4100 A=    0.0000 R=    0.0000 C=    0.0000
 XYZ=    1.1989   -8.3905   -8.6480 Q=    0.4100 A=    0.0000 R=    0.0000 C=    0.0000
 XYZ=    0.8042   11.8984    0.1406 Q=   -0.8200 A=    0.0000 R=    0.0000 C=    0.0000
 XYZ=    1.5431   12.4565   -0.2371 Q=    0.4100 A=    0.0000 R=    0.0000 C=    0.0000
 XYZ=    0.7108   11.0607   -0.3975 Q=    0.4100 A=    0.0000 R=    0.0000 C=    0.0000
 XYZ=    9.9821    1.5174   -4.0761 Q=   -0.8200 A=    0.0000 R=    0.0000 C=    0.0000
 XYZ=   10.1569    2.1443   -3.3168 Q=    0.4100 A=    0.0000 R=    0.0000 C=    0.0000
 XYZ=    9.8085    0.6001   -3.7178 Q=    0.4100 A=    0.0000 R=    0.0000 C=    0.0000
 XYZ=   -8.8067    3.7357   -6.7495 Q=   -0.8200 A=    0.0000 R=    0.0000 C=    0.0000
 XYZ=   -9.2440    4.4393   -6.1893 Q=    0.4100 A=    0.0000 R=    0.0000 C=    0.0000
 XYZ=   -7.8414    3.9638   -6.8773 Q=    0.4100 A=    0.0000 R=    0.0000 C=    0.0000
 XYZ=   -2.0518   10.7750   -4.7595 Q=   -0.8200 A=    0.0000 R=    0.0000 C=    0.0000
 XYZ=   -2.7342   10.1102   -4.4555 Q=    0.4100 A=    0.0000 R=    0.0000 C=    0.0000
 XYZ=   -2.2429   11.6634   -4.3419 Q=    0.4100 A=    0.0000 R=    0.0000 C=    0.0000
 XYZ=   -8.6362    5.5438    5.4957 Q=   -0.8200 A=    0.0000 R=    0.0000 C=    0.0000
 XYZ=   -8.2547    4.6385    5.6825 Q=    0.4100 A=    0.0000 R=    0.0000 C=    0.0000
 XYZ=   -7.9902    6.2460    5.7952 Q=    0.4100 A=    0.0000 R=    0.0000 C=    0.0000
 XYZ=   11.5519   -1.3592   -0.9706 Q=   -0.8200 A=    0.0000 R=    0.0000 C=    0.0000
 XYZ=   12.3198   -1.1412   -0.3681 Q=    0.4100 A=    0.0000 R=    0.0000 C=    0.0000
 XYZ=   10.7439   -1.5663   -0.4190 Q=    0.4100 A=    0.0000 R=    0.0000 C=    0.0000
 XYZ=    9.4610   -7.6425   -1.0951 Q=   -0.8200 A=    0.0000 R=    0.0000 C=    0.0000
 XYZ=    8.6584   -7.7181   -0.5034 Q=    0.4100 A=    0.0000 R=    0.0000 C=    0.0000
 XYZ=   10.1581   -8.2942   -0.7961 Q=    0.4100 A=    0.0000 R=    0.0000 C=    0.0000
 XYZ=    9.2902   -3.3603   -6.8282 Q=   -0.8200 A=    0.0000 R=    0.0000 C=    0.0000
 XYZ=    9.1650   -2.4198   -6.5123 Q=    0.4100 A=    0.0000 R=    0.0000 C=    0.0000
 XYZ=    9.4406   -3.3626   -7.8169 Q=    0.4100 A=    0.0000 R=    0.0000 C=    0.0000
 XYZ=  -10.6812    2.8956   -1.5753 Q=   -0.8200 A=    0.0000 R=    0.0000 C=    0.0000
 XYZ=  -11.5968    2.5647   -1.3467 Q=    0.4100 A=    0.0000 R=    0.0000 C=    0.0000
 XYZ=  -10.5755    3.8352   -1.2498 Q=    0.4100 A=    0.0000 R=    0.0000 C=    0.0000
 XYZ=    3.3046   -0.0740  -11.6841 Q=   -0.8200 A=    0.0000 R=    0.0000 C=    0.0000
 XYZ=    2.8663    0.5230  -11.0122 Q=    0.4100 A=    0.0000 R=    0.0000 C=    0.0000
 XYZ=    3.7288   -0.8487  -11.2151 Q=    0.4100 A=    0.0000 R=    0.0000 C=    0.0000
 XYZ=   -7.0557    9.3488    0.5909 Q=   -0.8200 A=    0.0000 R=    0.0000 C=    0.0000
 XYZ=   -7.6335   10.1349    0.3710 Q=    0.4100 A=    0.0000 R=    0.0000 C=    0.0000
 XYZ=   -6.9990    9.2444    1.5838 Q=    0.4100 A=    0.0000 R=    0.0000 C=    0.0000
 XYZ=   -5.1021   10.6586    0.3493 Q=   -0.8200 A=    0.0000 R=    0.0000 C=    0.0000
 XYZ=   -5.2731   11.5287   -0.1130 Q=    0.4100 A=    0.0000 R=    0.0000 C=    0.0000
 XYZ=   -5.9470   10.1245    0.3775 Q=    0.4100 A=    0.0000 R=    0.0000 C=    0.0000
 XYZ=   -5.7572    5.0961    8.9190 Q=   -0.8200 A=    0.0000 R=    0.0000 C=    0.0000
 XYZ=   -6.4624    5.8015    8.9909 Q=    0.4100 A=    0.0000 R=    0.0000 C=    0.0000
 XYZ=   -5.0625    5.3853    8.2603 Q=    0.4100 A=    0.0000 R=    0.0000 C=    0.0000
 XYZ=    5.7707   -5.0575   -9.4102 Q=   -0.8200 A=    0.0000 R=    0.0000 C=    0.0000
 XYZ=    6.1806   -5.7882   -9.9562 Q=    0.4100 A=    0.0000 R=    0.0000 C=    0.0000
 XYZ=    5.8671   -4.1868   -9.8926 Q=    0.4100 A=    0.0000 R=    0.0000 C=    0.0000
 XYZ=    4.9588    5.4796    9.3724 Q=   -0.8200 A=    0.0000 R=    0.0000 C=    0.0000
 XYZ=    5.4419    6.3297    9.5820 Q=    0.4100 A=    0.0000 R=    0.0000 C=    0.0000
 XYZ=    5.0526    5.2743    8.3982 Q=    0.4100 A=    0.0000 R=    0.0000 C=    0.0000
 XYZ=    8.6005   -5.4872   -6.4174 Q=   -0.8200 A=    0.0000 R=    0.0000 C=    0.0000
 XYZ=    8.9440   -4.5506   -6.4878 Q=    0.4100 A=    0.0000 R=    0.0000 C=    0.0000
 XYZ=    9.2365   -6.1105   -6.8724 Q=    0.4100 A=    0.0000 R=    0.0000 C=    0.0000
 XYZ=   -3.7456   -4.5478  -10.4655 Q=   -0.8200 A=    0.0000 R=    0.0000 C=    0.0000
 XYZ=   -4.3027   -4.4518  -11.2904 Q=    0.4100 A=    0.0000 R=    0.0000 C=    0.0000
 XYZ=   -2.8664   -4.0913  -10.6022 Q=    0.4100 A=    0.0000 R=    0.0000 C=    0.0000
 XYZ=   10.4810    2.6900   -2.1318 Q=   -0.8200 A=    0.0000 R=    0.0000 C=    0.0000
 XYZ=    9.6543    3.0288   -1.6826 Q=    0.4100 A=    0.0000 R=    0.0000 C=    0.0000
 XYZ=   10.9070    1.9883   -1.5606 Q=    0.4100 A=    0.0000 R=    0.0000 C=    0.0000
 XYZ=   -5.0342    3.8718  -10.6603 Q=   -0.8200 A=    0.0000 R=    0.0000 C=    0.0000
 XYZ=   -5.7428    3.1662  -10.6524 Q=    0.4100 A=    0.0000 R=    0.0000 C=    0.0000
 XYZ=   -4.1484    3.4569  -10.4527 Q=    0.4100 A=    0.0000 R=    0.0000 C=    0.0000
 XYZ=   -1.8305    4.2838  -11.4401 Q=   -0.8200 A=    0.0000 R=    0.0000 C=    0.0000
 XYZ=   -2.4180    3.6967  -10.8833 Q=    0.4100 A=    0.0000 R=    0.0000 C=    0.0000
 XYZ=   -1.2658    3.7172  -12.0402 Q=    0.4100 A=    0.0000 R=    0.0000 C=    0.0000
 XYZ=   -7.4509   -1.4000   -8.9860 Q=   -0.8200 A=    0.0000 R=    0.0000 C=    0.0000
 XYZ=   -8.4496   -1.3806   -9.0321 Q=    0.4100 A=    0.0000 R=    0.0000 C=    0.0000
 XYZ=   -7.1163   -2.2619   -9.3672 Q=    0.4100 A=    0.0000 R=    0.0000 C=    0.0000
 XYZ=    8.8953   -8.4904    3.2073 Q=   -0.8200 A=    0.0000 R=    0.0000 C=    0.0000
 XYZ=    8.2156   -7.8635    2.8265 Q=    0.4100 A=    0.0000 R=    0.0000 C=    0.0000
 XYZ=    8.6129   -8.7710    4.1247 Q=    0.4100 A=    0.0000 R=    0.0000 C=    0.0000
 XYZ=   -2.2281  -11.9666    0.4462 Q=   -0.8200 A=    0.0000 R=    0.0000 C=    0.0000
 XYZ=   -2.4625  -11.3324   -0.2907 Q=    0.4100 A=    0.0000 R=    0.0000 C=    0.0000
 XYZ=   -1.7346  -12.7496    0.0676 Q=    0.4100 A=    0.0000 R=    0.0000 C=    0.0000
 XYZ=    4.5267    3.2286    9.7911 Q=   -0.8200 A=    0.0000 R=    0.0000 C=    0.0000
 XYZ=    4.9869    2.9736   10.6415 Q=    0.4100 A=    0.0000 R=    0.0000 C=    0.0000
 XYZ=    4.6657    4.2034    9.6162 Q=    0.4100 A=    0.0000 R=    0.0000 C=    0.0000
 XYZ=    1.4470    5.3382   10.3669 Q=   -0.8200 A=    0.0000 R=    0.0000 C=    0.0000
 XYZ=    0.6494    5.3742   10.9690 Q=    0.4100 A=    0.0000 R=    0.0000 C=    0.0000
 XYZ=    1.8208    4.4106   10.3640 Q=    0.4100 A=    0.0000 R=    0.0000 C=    0.0000
 XYZ=    0.7132   11.8095    2.4952 Q=   -0.8200 A=    0.0000 R=    0.0000 C=    0.0000
 XYZ=    0.2161   11.0337    2.8839 Q=    0.4100 A=    0.0000 R=    0.0000 C=    0.0000
 XYZ=    0.7613   11.7103    1.5013 Q=    0.4100 A=    0.0000 R=    0.0000 C=    0.0000
 XYZ=  -11.8217    0.2812   -2.0566 Q=   -0.8200 A=    0.0000 R=    0.0000 C=    0.0000
 XYZ=  -12.3628    1.0988   -1.8594 Q=    0.4100 A=    0.0000 R=    0.0000 C=    0.0000
 XYZ=  -10.8891    0.4093   -1.7192 Q=    0.4100 A=    0.0000 R=    0.0000 C=    0.0000
 XYZ=   -4.2701   -7.2846    6.7470 Q=   -0.8200 A=    0.0000 R=    0.0000 C=    0.0000
 XYZ=   -4.9058   -7.0588    6.0089 Q=    0.4100 A=    0.0000 R=    0.0000 C=    0.0000
 XYZ=   -4.6492   -6.9761    7.6194 Q=    0.4100 A=    0.0000 R=    0.0000 C=    0.0000
 XYZ=   -5.5352   -4.8933   -9.1212 Q=   -0.8200 A=    0.0000 R=    0.0000 C=    0.0000
 XYZ=   -4.7050   -4.8519   -9.6771 Q=    0.4100 A=    0.0000 R=    0.0000 C=    0.0000
 XYZ=   -5.6741   -5.8298   -8.7990 Q=    0.4100 A=    0.0000 R=    0.0000 C=    0.0000
 XYZ=   -2.6238  -11.8029   -3.4512 Q=   -0.8200 A=    0.0000 R=    0.0000 C=    0.0000
 XYZ=   -1.9216  -11.3190   -3.9735 Q=    0.4100 A=    0.0000 R=    0.0000 C=    0.0000
 XYZ=   -3.2100  -12.3169   -4.0774 Q=    0.4100 A=    0.0000 R=    0.0000 C=    0.0000
 XYZ=    7.8701    7.4688    4.7482 Q=   -0.8200 A=    0.0000 R=    0.0000 C=    0.0000
 XYZ=    8.4887    6.7061    4.9369 Q=    0.4100 A=    0.0000 R=    0.0000 C=    0.0000
 XYZ=    7.1172    7.1524    4.1710 Q=    0.4100 A=    0.0000 R=    0.0000 C=    0.0000
 XYZ=    1.7242   -5.6175  -11.5036 Q=   -0.8200 A=    0.0000 R=    0.0000 C=    0.0000
 XYZ=    1.0894   -4.9793  -11.0680 Q=    0.4100 A=    0.0000 R=    0.0000 C=    0.0000
 XYZ=    2.6066   -5.5825  -11.0342 Q=    0.4100 A=    0.0000 R=    0.0000 C=    0.0000
 XYZ=   -3.4358    7.4944    9.0876 Q=   -0.8200 A=    0.0000 R=    0.0000 C=    0.0000
 XYZ=   -3.6511    6.7680    8.4349 Q=    0.4100 A=    0.0000 R=    0.0000 C=    0.0000
 XYZ=   -4.2784    7.8132    9.5215 Q=    0.4100 A=    0.0000 R=    0.0000 C=    0.0000
 XYZ=   -5.7270    5.3569   -8.7172 Q=   -0.8200 A=    0.0000 R=    0.0000 C=    0.0000
 XYZ=   -6.1759    6.1730   -9.0812 Q=    0.4100 A=    0.0000 R=    0.0000 C=    0.0000
 XYZ=   -5.5024    4.7368   -9.4689 Q=    0.4100 A=    0.0000 R=    0.0000 C=    0.0000
 XYZ=   -7.9711   -5.2941    5.7268 Q=   -0.8200 A=    0.0000 R=    0.0000 C=    0.0000
 XYZ=   -8.7770   -5.6186    5.2315 Q=    0.4100 A=    0.0000 R=    0.0000 C=    0.0000
 XYZ=   -7.7110   -4.3910    5.3848 Q=    0.4100 A=    0.0000 R=    0.0000 C=    0.0000
 XYZ=   -7.0385    3.3304    8.2266 Q=   -0.8200 A=    0.0000 R=    0.0000 C=    0.0000
 XYZ=   -7.2695    2.8595    9.0780 Q=    0.4100 A=    0.0000 R=    0.0000 C=    0.0000
 XYZ=   -6.3588    4.0401    8.4121 Q=    0.4100 A=    0.0000 R=    0.0000 C=    0.0000
 XYZ=   -6.3799    2.0215  -10.9915 Q=   -0.8200 A=    0.0000 R=    0.0000 C=    0.0000
 XYZ=   -6.4741    1.5744  -10.1019 Q=    0.4100 A=    0.0000 R=    0.0000 C=    0.0000
 XYZ=   -7.2340    1.9288  -11.5032 Q=    0.4100 A=    0.0000 R=    0.0000 C=    0.0000
 XYZ=    0.0753   -0.9854   12.1912 Q=   -0.8200 A=    0.0000 R=    0.0000 C=    0.0000
 XYZ=   -0.2375   -1.3305   11.3063 Q=    0.4100 A=    0.0000 R=    0.0000 C=    0.0000
 XYZ=   -0.6201   -0.3792   12.5773 Q=    0.4100 A=    0.0000 R=    0.0000 C=    0.0000
 XYZ=   11.1583   -5.0276    0.8185 Q=   -0.8200 A=    0.0000 R=    0.0000 C=    0.0000
 XYZ=   10.6291   -4.9888   -0.0292 Q=    0.4100 A=    0.0000 R=    0.0000 C=    0.0000
 XYZ=   11.4797   -5.9626    0.9682 Q=    0.4100 A=    0.0000 R=    0.0000 C=    0.0000
 XYZ=   -9.8726    5.0140   -5.0388 Q=   -0.8200 A=    0.0000 R=    0.0000 C=    0.0000
 XYZ=   -9.4545    5.6740   -4.4145 Q=    0.4100 A=    0.0000 R=    0.0000 C=    0.0000
 XYZ=   -9.9890    4.1387   -4.5694 Q=    0.4100 A=    0.0000 R=    0.0000 C=    0.0000
 XYZ=   -4.3342   11.4428    2.2768 Q=   -0.8200 A=    0.0000 R=    0.0000 C=    0.0000
 XYZ=   -5.0635   11.6639    2.9243 Q=    0.4100 A=    0.0000 R=    0.0000 C=    0.0000
 XYZ=   -4.7325   11.0518    1.4470 Q=    0.4100 A=    0.0000 R=    0.0000 C=    0.0000
 XYZ=   -0.7955    2.9865   11.2599 Q=   -0.8200 A=    0.0000 R=    0.0000 C=    0.0000
 XYZ=    0.1020    2.5684   11.4009 Q=    0.4100 A=    0.0000 R=    0.0000 C=    0.0000
 XYZ=   -0.7609    3.9488   11.5296 Q=    0.4100 A=    0.0000 R=    0.0000 C=    0.0000
 XYZ=   11.4747    1.0107   -0.8335 Q=   -0.8200 A=    0.0000 R=    0.0000 C=    0.0000
 XYZ=   11.5036    0.0209   -0.9732 Q=    0.4100 A=    0.0000 R=    0.0000 C=    0.0000
 XYZ=   10.9652    1.2145    0.0026 Q=    0.4100 A=    0.0000 R=    0.0000 C=    0.0000
 XYZ=   -5.3273   11.1182   -4.4352 Q=   -0.8200 A=    0.0000 R=    0.0000 C=    0.0000
 XYZ=   -4.9713   10.2316   -4.1400 Q=    0.4100 A=    0.0000 R=    0.0000 C=    0.0000
 XYZ=   -4.8459   11.4125   -5.2609 Q=    0.4100 A=    0.0000 R=    0.0000 C=    0.0000
 XYZ=    4.9007   -0.8400   10.2147 Q=   -0.8200 A=    0.0000 R=    0.0000 C=    0.0000
 XYZ=    5.6889   -0.3705    9.8168 Q=    0.4100 A=    0.0000 R=    0.0000 C=    0.0000
 XYZ=    5.1022   -1.0844   11.1632 Q=    0.4100 A=    0.0000 R=    0.0000 C=    0.0000
 XYZ=   -7.1060   -7.7742    2.1300 Q=   -0.8200 A=    0.0000 R=    0.0000 C=    0.0000
 XYZ=   -7.5849   -6.9071    1.9933 Q=    0.4100 A=    0.0000 R=    0.0000 C=    0.0000
 XYZ=   -6.9331   -7.9092    3.1057 Q=    0.4100 A=    0.0000 R=    0.0000 C=    0.0000
 XYZ=   -4.0448   -4.7338    9.1423 Q=   -0.8200 A=    0.0000 R=    0.0000 C=    0.0000
 XYZ=   -4.6671   -5.4417    8.8085 Q=    0.4100 A=    0.0000 R=    0.0000 C=    0.0000
 XYZ=   -3.7777   -4.9415   10.0834 Q=    0.4100 A=    0.0000 R=    0.0000 C=    0.0000
 XYZ=    6.1043   -2.9882  -10.6278 Q=   -0.8200 A=    0.0000 R=    0.0000 C=    0.0000
 XYZ=    6.3933   -2.8203  -11.5703 Q=    0.4100 A=    0.0000 R=    0.0000 C=    0.0000
 XYZ=    6.7580   -2.5675   -9.9988 Q=    0.4100 A=    0.0000 R=    0.0000 C=    0.0000
 XYZ=   -3.9837   -8.0537   -8.5238 Q=   -0.8200 A=    0.0000 R=    0.0000 C=    0.0000
 XYZ=   -3.5849   -7.4355   -9.2012 Q=    0.4100 A=    0.0000 R=    0.0000 C=    0.0000
 XYZ=   -3.4905   -8.9236   -8.5355 Q=    0.4100 A=    0.0000 R=    0.0000 C=    0.0000
 XYZ=    1.4881    2.4915   12.1714 Q=   -0.8200 A=    0.0000 R=    0.0000 C=    0.0000
 XYZ=    1.9656    2.7304   11.3259 Q=    0.4100 A=    0.0000 R=    0.0000 C=    0.0000
 XYZ=    1.6527    1.5289   12.3866 Q=    0.4100 A=    0.0000 R=    0.0000 C=    0.0000
 XYZ=   -0.4355  -12.1655   -6.2973 Q=   -0.8200 A=    0.0000 R=    0.0000 C=    0.0000
 XYZ=   -0.1559  -13.0593   -5.9465 Q=    0.4100 A=    0.0000 R=    0.0000 C=    0.0000
 XYZ=   -0.6705  -11.5658   -5.5323 Q=    0.4100 A=    0.0000 R=    0.0000 C=    0.0000
 XYZ=   -0.1194    2.8555  -12.5254 Q=   -0.8200 A=    0.0000 R=    0.0000 C=    0.0000
 XYZ=    0.5040    3.1765  -11.8124 Q=    0.4100 A=    0.0000 R=    0.0000 C=    0.0000
 XYZ=   -0.3399    1.8931  -12.3667 Q=    0.4100 A=    0.0000 R=    0.0000 C=    0.0000
 XYZ=   -8.5744    1.5171    8.2695 Q=   -0.8200 A=    0.0000 R=    0.0000 C=    0.0000
 XYZ=   -8.2896    0.6887    7.7873 Q=    0.4100 A=    0.0000 R=    0.0000 C=    0.0000
 XYZ=   -7.9681    2.2725    8.0210 Q=    0.4100 A=    0.0000 R=    0.0000 C=    0.0000
[...]
    43  H    0.000000   0.000000  -0.000042   0.000000   0.000028   0.005290
    44  H    0.000000   0.000000  -0.000002   0.000000   0.000000   0.002283
    45  O    0.000000   0.000000  -0.137601   0.005209   0.008969  -0.000003
    46  H    0.000000   0.000000  -0.000126  -0.000122  -0.000124   0.000000
    47  H    0.000000   0.000000   0.030230  -0.003817   0.005119   0.000002
    48  O    0.000000  -0.000001  -0.134818  -0.007241   0.004431  -0.000176
    49  H    0.000000   0.000000   0.000503   0.001818   0.000046  -0.000011
    50  H    0.000000   0.000000   0.002503   0.002090  -0.000075   0.000029
              31         32         33         34         35         36
     1  C    0.000105   0.000006   0.000338  -0.000004   0.000027   0.001441
     2  H    0.000000   0.000000   0.000000   0.000000   0.000000   0.000000
     3  H    0.000000   0.000000   0.000000   0.000000   0.000000  -0.000006
     4  C   -0.000054   0.000013  -0.005423   0.000057   0.007466  -0.001613
     5  H    0.000000   0.000000  -0.000005   0.000000  -0.000002  -0.000014
     6  C    0.000061  -0.000001  -0.006734   0.000439  -0.003630   0.000313
     7  H    0.000000   0.000000   0.001218   0.000004  -0.001898  -0.000001
     8  O   -0.000172   0.000000  -0.001782  -0.000001   0.001177  -0.000012
     9  O   -0.000042   0.000000   0.025520   0.003550   0.009393   0.000000
    10  H    0.000001   0.000000  -0.001704   0.000035   0.005039   0.000000
    11  H    0.000000   0.000000  -0.003508  -0.000238   0.003580   0.000000
    12  O   -0.000007   0.000000  -0.000001   0.000000  -0.000008  -0.000011
    13  H    0.000000   0.000000   0.000000   0.000000   0.000000   0.000018
    14  H    0.000000   0.000000   0.000000   0.000000   0.000003   0.000003
    15  O   -0.011730  -0.004560   0.000040   0.000002   0.000016   0.000000
    16  H    0.000563   0.000027  -0.000081   0.000001   0.000013   0.000000
    17  H    0.002587   0.000230  -0.000001   0.000000   0.000000   0.000000
    18  O    0.000000   0.000000   0.000000   0.000000   0.000000  -0.055440
    19  H    0.000000   0.000000   0.000000   0.000000   0.000000   0.001323
    20  H    0.000000   0.000000   0.000000   0.000000   0.000000   0.038665
    21  O   -0.001075   0.000002  -0.010113  -0.000964  -0.000234   0.000000
    22  H    0.000001   0.000000  -0.006277  -0.000102   0.001372   0.000000
    23  H    0.000022   0.000000   0.000049  -0.000030   0.000120   0.000000
    24  O    0.000000   0.000000   0.000000   0.000000   0.000000   0.000000
    25  H    0.000000   0.000000   0.000000   0.000000   0.000000  -0.000017
    26  H    0.000000   0.000000   0.000000   0.000000   0.000000   0.000097
    27  O    0.000638   0.000019  -0.000647  -0.000130   0.000999   0.000000
    28  H   -0.000046   0.000000   0.000012   0.000000  -0.000009   0.000000
    29  H   -0.000078  -0.000001  -0.000197   0.000014  -0.000082   0.000000
    30  O    0.137529   0.207236   0.000000   0.000000   0.000000   0.000000
    31  H    0.250964  -0.001099   0.000000   0.000000   0.000000   0.000000
    32  H   -0.001099   0.165873   0.000000   0.000000   0.000000   0.000000
    33  O    0.000000   0.000000   8.932989   0.202933   0.118913   0.000000
    34  H    0.000000   0.000000   0.202933   0.166516  -0.006724   0.000000
    35  H    0.000000   0.000000   0.118913  -0.006724   0.231638   0.000000
    36  O    0.000000   0.000000   0.000000   0.000000   0.000000   8.799565
    37  H    0.000000   0.000000   0.000000   0.000000   0.000000   0.210742
    38  H    0.000000   0.000000   0.000000   0.000000   0.000000   0.215625
    39  O   -0.000001   0.000000   0.000000   0.000000   0.000000   0.000000
    40  H    0.000000   0.000000   0.000000   0.000000   0.000000   0.000000
    41  H    0.000000   0.000000   0.000000   0.000000   0.000000   0.000000
    42  O    0.004978   0.004165   0.000000   0.000000   0.000000   0.000000
    43  H    0.004860   0.000542   0.000000   0.000000   0.000000   0.000000
    44  H   -0.000194   0.000236   0.000000   0.000000   0.000000   0.000000
    45  O    0.000003   0.000000  -0.003954  -0.000152   0.000468   0.000000
    46  H    0.000000   0.000000  -0.000003   0.000000   0.000013   0.000000
    47  H    0.000000   0.000000   0.000223   0.000002   0.000011   0.000000
    48  O    0.000403  -0.000006   0.000002   0.000000  -0.000006   0.000000
    49  H    0.000002   0.000000   0.000000   0.000000   0.000000   0.000000
    50  H   -0.000013   0.000000   0.000000   0.000000   0.000000   0.000000
              37         38         39         40         41         42
     1  C   -0.000060  -0.000049  -0.001557  -0.000321   0.000886  -0.000110
     2  H    0.000000   0.000000  -0.000231   0.000017  -0.000032   0.000000
     3  H    0.000000   0.000000   0.000002   0.000000  -0.000001   0.000000
     4  C    0.000437  -0.000519  -0.000780   0.000712  -0.001536   0.000409
     5  H   -0.000002   0.000000  -0.000001   0.000000   0.000000   0.000000
     6  C   -0.000284   0.000439   0.003236  -0.000183   0.001312  -0.000499
     7  H    0.000000   0.000000  -0.000001   0.000000   0.000000   0.000000
     8  O    0.000000   0.000000  -0.001383   0.000000  -0.000564  -0.000006
     9  O    0.000000   0.000000  -0.000038   0.000000  -0.000023  -0.000038
    10  H    0.000000   0.000000   0.000002   0.000000  -0.000001   0.000001
    11  H    0.000000   0.000000   0.000001   0.000000   0.000000   0.000000
    12  O    0.000000   0.000000  -0.121724   0.004865  -0.000526   0.000000
    13  H    0.000000   0.000000   0.003263  -0.000864   0.000825   0.000000
    14  H    0.000000   0.000000   0.005694  -0.000008   0.003029   0.000000
    15  O    0.000000   0.000000   0.000013   0.000000   0.000002  -0.038794
    16  H    0.000000   0.000000   0.000001   0.000000   0.000000  -0.000650
    17  H    0.000000   0.000000   0.000000   0.000000   0.000000  -0.000203
    18  O    0.001039   0.000559   0.000020  -0.000027   0.000007   0.000000
    19  H    0.000001   0.000003  -0.000001   0.000000   0.000000   0.000000
    20  H    0.000675  -0.001719  -0.000001   0.000000   0.000000   0.000000
    21  O    0.000000   0.000000  -0.000032   0.000000  -0.000011  -0.001779
    22  H    0.000000   0.000000   0.000000   0.000000   0.000000   0.000015
    23  H    0.000000   0.000000   0.000000   0.000000   0.000000  -0.000025
    24  O    0.000000   0.000011  -0.010124  -0.000041  -0.001341   0.000000
    25  H    0.000000   0.000000   0.000183  -0.000029   0.000025   0.000000
    26  H   -0.000003  -0.000007   0.000400  -0.000005   0.000000   0.000000
    27  O    0.000000   0.000000  -0.000093   0.000001   0.000008   0.000072
    28  H    0.000000   0.000000   0.000044   0.000000  -0.000009  -0.000001
    29  H    0.000000   0.000000   0.000004   0.000000   0.000000   0.000029
    30  O    0.000000   0.000000   0.000003   0.000000   0.000000  -0.009042
    31  H    0.000000   0.000000  -0.000001   0.000000   0.000000   0.004978
    32  H    0.000000   0.000000   0.000000   0.000000   0.000000   0.004165
    33  O    0.000000   0.000000   0.000000   0.000000   0.000000   0.000000
    34  H    0.000000   0.000000   0.000000   0.000000   0.000000   0.000000
    35  H    0.000000   0.000000   0.000000   0.000000   0.000000   0.000000
    36  O    0.210742   0.215625   0.000000   0.000000   0.000000   0.000000
    37  H    0.166676  -0.005025   0.000000   0.000000   0.000000   0.000000
    38  H   -0.005025   0.185670   0.000000   0.000000   0.000000   0.000000
    39  O    0.000000   0.000000   8.952679   0.211577   0.164879   0.000000
    40  H    0.000000   0.000000   0.211577   0.271161  -0.008586   0.000000
    41  H    0.000000   0.000000   0.164879  -0.008586   0.194294   0.000000
    42  O    0.000000   0.000000   0.000000   0.000000   0.000000   8.754222
    43  H    0.000000   0.000000   0.000000   0.000000   0.000000   0.168421
    44  H    0.000000   0.000000   0.000000   0.000000   0.000000   0.232458
    45  O    0.000000   0.000000  -0.000001   0.000000   0.000001   0.000002
    46  H    0.000000   0.000000   0.000000   0.000000   0.000000   0.000000
    47  H    0.000000   0.000000   0.000001   0.000000   0.000000   0.000000
    48  O    0.000000   0.000000   0.000211  -0.000029   0.000010  -0.000005
    49  H    0.000000   0.000000  -0.000053   0.000001   0.000000   0.000000
    50  H    0.000000   0.000000   0.000299   0.000004   0.000017  -0.000001
              43         44         45         46         47         48
     1  C    0.000019  -0.000001  -0.000152   0.000001   0.000057   0.000083
     2  H    0.000000   0.000000   0.000000   0.000000   0.000000  -0.000001
     3  H    0.000000   0.000000   0.000000   0.000000   0.000000   0.000000
     4  C    0.000006  -0.000008   0.001854   0.000006  -0.000807  -0.000083
     5  H    0.000000   0.000000   0.000000   0.000000   0.000000   0.000000
     6  C    0.000102   0.000009   0.001098  -0.000016  -0.001105  -0.000437
     7  H    0.000000   0.000000   0.000008   0.000000  -0.000001  -0.000003
     8  O    0.000009   0.000000  -0.003914   0.000012  -0.000026   0.000405
     9  O    0.000008   0.000000  -0.094331   0.002610   0.028613   0.001991
    10  H    0.000000   0.000000   0.002282  -0.000098  -0.001680  -0.000304
    11  H    0.000000   0.000000   0.064899   0.000108  -0.003548  -0.000246
    12  O    0.000000   0.000000  -0.000074   0.000001   0.000082   0.001447
    13  H    0.000000   0.000000   0.000000   0.000000   0.000000  -0.000034
    14  H    0.000000   0.000000  -0.000034   0.000000  -0.000012   0.000177
    15  O    0.021186  -0.001540   0.001377  -0.000009   0.000592  -0.004646
    16  H    0.002150   0.000033  -0.000102   0.000000  -0.000065   0.000310
    17  H   -0.001929   0.000081  -0.000003   0.000000  -0.000006   0.000089
    18  O    0.000000   0.000000   0.000000   0.000000   0.000000   0.000001
    19  H    0.000000   0.000000   0.000000   0.000000   0.000000   0.000000
    20  H    0.000000   0.000000   0.000000   0.000000   0.000000   0.000000
    21  O    0.000333   0.000036  -0.001711   0.000014   0.005165  -0.000483
    22  H   -0.000006   0.000000   0.001789   0.000008  -0.001435  -0.000113
    23  H   -0.000044   0.000000   0.000075   0.000001  -0.000061   0.000001
    24  O    0.000000   0.000000  -0.000002   0.000000   0.000000   0.000081
    25  H    0.000000   0.000000   0.000000   0.000000   0.000000   0.000000
    26  H    0.000000   0.000000   0.000000   0.000000   0.000000  -0.000001
    27  O   -0.000042  -0.000002  -0.137601  -0.000126   0.030230  -0.134818
    28  H    0.000000   0.000000   0.005209  -0.000122  -0.003817  -0.007241
    29  H    0.000028   0.000000   0.008969  -0.000124   0.005119   0.004431
    30  O    0.005290   0.002283  -0.000003   0.000000   0.000002  -0.000176
    31  H    0.004860  -0.000194   0.000003   0.000000   0.000000   0.000403
    32  H    0.000542   0.000236   0.000000   0.000000   0.000000  -0.000006
    33  O    0.000000   0.000000  -0.003954  -0.000003   0.000223   0.000002
    34  H    0.000000   0.000000  -0.000152   0.000000   0.000002   0.000000
    35  H    0.000000   0.000000   0.000468   0.000013   0.000011  -0.000006
    36  O    0.000000   0.000000   0.000000   0.000000   0.000000   0.000000
    37  H    0.000000   0.000000   0.000000   0.000000   0.000000   0.000000
    38  H    0.000000   0.000000   0.000000   0.000000   0.000000   0.000000
    39  O    0.000000   0.000000  -0.000001   0.000000   0.000001   0.000211
    40  H    0.000000   0.000000   0.000000   0.000000   0.000000  -0.000029
    41  H    0.000000   0.000000   0.000001   0.000000   0.000000   0.000010
    42  O    0.168421   0.232458   0.000002   0.000000   0.000000  -0.000005
    43  H    0.247525  -0.007568   0.000000   0.000000   0.000000   0.000021
    44  H   -0.007568   0.221864   0.000000   0.000000   0.000000   0.000000
    45  O    0.000000   0.000000   9.135658   0.201208   0.063753  -0.005088
    46  H    0.000000   0.000000   0.201208   0.154123   0.002157   0.000111
    47  H    0.000000   0.000000   0.063753   0.002157   0.270408   0.004142
    48  O    0.000021   0.000000  -0.005088   0.000111   0.004142   8.963336
    49  H    0.000000   0.000000   0.000437  -0.000015  -0.000065   0.191130
    50  H    0.000000   0.000000  -0.000017   0.000000  -0.000016   0.206074
              49         50
     1  C   -0.000006  -0.000009
     2  H    0.000000   0.000000
     3  H    0.000000   0.000000
     4  C   -0.000018   0.000074
     5  H    0.000000   0.000000
     6  C   -0.000023  -0.000039
     7  H    0.000000   0.000000
     8  O    0.000029  -0.000055
     9  O   -0.000022   0.000010
    10  H    0.000001   0.000000
    11  H   -0.000003   0.000000
    12  O   -0.000100   0.000038
    13  H    0.000001   0.000002
    14  H   -0.000006  -0.000009
    15  O    0.000038   0.000092
    16  H    0.000000  -0.000006
    17  H    0.000002  -0.000001
    18  O    0.000000   0.000000
    19  H    0.000000   0.000000
    20  H    0.000000   0.000000
    21  O   -0.000023   0.000054
    22  H    0.000000   0.000000
    23  H    0.000000   0.000000
    24  O   -0.000002  -0.000001
    25  H    0.000000   0.000000
    26  H    0.000000   0.000000
    27  O    0.000503   0.002503
    28  H    0.001818   0.002090
    29  H    0.000046  -0.000075
    30  O   -0.000011   0.000029
    31  H    0.000002  -0.000013
    32  H    0.000000   0.000000
    33  O    0.000000   0.000000
    34  H    0.000000   0.000000
    35  H    0.000000   0.000000
    36  O    0.000000   0.000000
    37  H    0.000000   0.000000
    38  H    0.000000   0.000000
    39  O   -0.000053   0.000299
    40  H    0.000001   0.000004
    41  H    0.000000   0.000017
    42  O    0.000000  -0.000001
    43  H    0.000000   0.000000
    44  H    0.000000   0.000000
    45  O    0.000437  -0.000017
    46  H   -0.000015   0.000000
    47  H   -0.000065  -0.000016
    48  O    0.191130   0.206074
    49  H    0.149920  -0.002232
    50  H   -0.002232   0.182902
 Mulliken charges:
               1
     1  C   -0.444771
     2  H    0.277784
     3  H    0.234494
     4  C   -0.036459
     5  H    0.221010
     6  C    0.005681
     7  H    0.210342
     8  O   -0.406097
     9  O   -1.360323
    10  H    0.511690
    11  H    0.650626
    12  O   -1.153575
    13  H    0.621322
    14  H    0.526688
    15  O   -1.338479
    16  H    0.599662
    17  H    0.690354
    18  O   -1.162552
    19  H    0.578296
    20  H    0.596141
    21  O   -1.230273
    22  H    0.679614
    23  H    0.645741
    24  O   -1.202397
    25  H    0.632116
    26  H    0.602698
    27  O   -1.340994
    28  H    0.690618
    29  H    0.641696
    30  O   -1.232095
    31  H    0.611795
    32  H    0.627317
    33  O   -1.241806
    34  H    0.634793
    35  H    0.632346
    36  O   -1.210678
    37  H    0.625804
    38  H    0.605013
    39  O   -1.206494
    40  H    0.521756
    41  H    0.647337
    42  O   -1.113620
    43  H    0.559090
    44  H    0.552311
    45  O   -1.241953
    46  H    0.640140
    47  H    0.602089
    48  O   -1.220736
    49  H    0.658650
    50  H    0.608287
 Sum of Mulliken charges =   0.00000
 Mulliken charges with hydrogens summed into heavy atoms:
               1
     1  C    0.067507
     4  C    0.184552
     6  C    0.216023
     8  O   -0.406097
     9  O   -0.198007
    12  O   -0.005564
    15  O   -0.048462
    18  O    0.011885
    21  O    0.095082
    24  O    0.032417
    27  O   -0.008680
    30  O    0.007017
    33  O    0.025333
    36  O    0.020139
    39  O   -0.037401
    42  O   -0.002219
    45  O    0.000275
    48  O    0.046202
 Electronic spatial extent (au):  <R**2>=          10726.0350
 Charge=              0.0000 electrons
 Dipole moment (field-independent basis, Debye):
    X=             13.5459    Y=              1.4046    Z=             -3.4156  Tot=             14.0403
 Quadrupole moment (field-independent basis, Debye-Ang):
   XX=            -55.8842   YY=           -141.3997   ZZ=           -112.8478
   XY=              4.1992   XZ=            -18.2407   YZ=              9.7839
 Traceless Quadrupole moment (field-independent basis, Debye-Ang):
   XX=             47.4931   YY=            -38.0225   ZZ=             -9.4706
   XY=              4.1992   XZ=            -18.2407   YZ=              9.7839
 Octapole moment (field-independent basis, Debye-Ang**2):
  XXX=            468.3646  YYY=            -63.0183  ZZZ=             99.5404  XYY=             80.0862
  XXY=             58.9439  XXZ=             -8.1142  XZZ=             41.0189  YZZ=            -23.7459
  YYZ=            -74.0589  XYZ=            -35.7895
 Hexadecapole moment (field-independent basis, Debye-Ang**3):
 XXXX=          -4935.4072 YYYY=          -3979.2501 ZZZZ=          -1742.0423 XXXY=            438.5759
 XXXZ=            -96.6621 YYYX=           -212.7316 YYYZ=            270.9866 ZZZX=           -359.7747
 ZZZY=             86.4667 XXYY=           -788.0779 XXZZ=          -1663.5327 YYZZ=           -863.3774
 XXYZ=             58.8358 YYXZ=            -82.4208 ZZXY=            370.8705
 N-N= 1.193379009895D+03 E-N=-6.354722870836D+03  KE= 1.249775215474D+03
 Leave Link  601 at Fri Sep 14 18:41:26 2018, MaxMem=    33554432 cpu:        23.9
 (Enter /usr/local/pacerepov1/gaussian/G09D01LINDA/g09/l9999.exe)

 Test job not archived.
 1\1\GINC-IW-H31-22\SP\RLC-wPBE TD-FC\6-31+G(d)\C3H32O15\ROOT\14-Sep-20
 18\0\\#p td=(nstates=15)/6-31+g(d) lc-wpbe charge\\Acroleina in Water\
 \0,1\C,0,0.485154,0.480443,-1.430142\H,0,1.461403,0.187773,-1.055732\H
 ,0,0.429244,0.878853,-2.437062\C,0,-0.605127,0.346563,-0.658432\H,0,-1
 .591686,0.632893,-1.012412\C,0,-0.508516,-0.199107,0.712798\H,0,-1.458
 487,-0.272107,1.272438\O,0,0.544883,-0.561317,1.236519\O,0,-0.597767,-
 0.652811,3.434968\H,0,-0.289257,-0.068051,2.684698\H,0,-0.045557,-0.47
 0321,4.248477\O,0,2.492573,1.830289,0.966148\H,0,2.208283,2.728359,0.6
 30398\H,0,1.720063,1.383269,1.417168\O,0,2.017133,-3.969381,1.825778\H
 ,0,1.132963,-3.579781,2.083688\H,0,2.419703,-4.433511,2.614798\O,0,-0.
 150767,4.357789,-0.410942\H,0,0.370773,5.115319,-0.803592\H,0,-1.11830
 7,4.606739,-0.367002\O,0,0.261833,-2.703591,2.835028\H,0,-0.292077,-1.
 874951,2.916268\H,0,-0.332337,-3.506921,2.875338\O,0,2.140393,3.920039
 ,0.206328\H,0,2.636333,4.637259,-0.283192\H,0,1.173753,3.950039,-0.048
 202\O,0,1.991663,-1.665341,4.204138\H,0,2.669863,-1.177141,3.654828\H,
 0,1.373303,-2.168411,3.600328\O,0,4.109843,-4.406151,0.627798\H,0,3.23
 0033,-4.092301,0.984828\H,0,3.955193,-5.085601,-0.089472\O,0,-2.952317
 ,-1.341361,3.913048\H,0,-2.790147,-1.952471,4.687848\H,0,-2.091497,-0.
 910031,3.642908\O,0,-2.699567,4.956219,-0.540242\H,0,-3.581987,4.56935
 9,-0.808062\H,0,-2.742087,5.254629,0.413258\O,0,4.696404,1.831539,0.54
 8938\H,0,4.827064,1.884529,-0.441092\H,0,3.732553,1.655279,0.748938\O,
 0,1.729293,-6.200681,0.273708\H,0,1.888914,-5.451331,0.916388\H,0,2.58
 5163,-6.430191,-0.189822\O,0,0.694143,-0.412121,5.508208\H,0,1.230743,
 0.039319,6.221148\H,0,1.306603,-0.914711,4.898037\O,0,4.024734,-1.0172
 81,3.395118\H,0,4.496153,-0.380061,4.004838\H,0,4.560813,-1.137351,2.5
 59508\\Version=EM64L-G09RevD.01\State=1-A\HF=-1759.1648682\RMSD=2.504e
 -09\PG=C01 [X(C3H32O15)]\\@


     ON THE SURVIVAL OF THE FITTEST -
 "STRONG REPRESENTATIVES FROM EACH PAST ERA THRIVE TODAY,
 SUCH AS PROGRAMMING IN THE THIRTY YEAR OLD LANGUAGE KNOWN
 AS FORTRAN, AND EVEN IN THE ANCIENT SCRIPT KNOWN AS DIRECT
 MACHINE CODE. SOME PEOPLE MIGHT LOOK ON SUCH RELICS AS LIVING
 FOSSILS; OTHERS WOULD POINT OUT THAT EVEN A VERY OLD SPECIES
 MIGHT STILL BE FILLING A PARTICULAR ECOLOGICAL NICHE."
     -- ALAN KAY, SCI.AM. SEPTEMBER 1984
 Job cpu time:       0 days  8 hours 48 minutes 56.1 seconds.
 File lengths (MBytes):  RWF=    792 Int=      0 D2E=      0 Chk=     96 Scr=      2
 Normal termination of Gaussian 09 at Fri Sep 14 18:41:32 2018.
