 Entering Gaussian System, Link 0=g09
 Input=Acroleina_water_15_79c.gjf
 Output=Acroleina_water_15_79c.log
 Initial command:
 /usr/local/pacerepov1/gaussian/G09D01LINDA/g09/l1.exe /nv/hp18/holiveira7/scratch/22412008/Gau-16660.inp -scrdir=/nv/hp18/holiveira7/scratch/22412008/
 Entering Link 1 = /usr/local/pacerepov1/gaussian/G09D01LINDA/g09/l1.exe PID=     16661.
  
 Copyright (c) 1988,1990,1992,1993,1995,1998,2003,2009,2013,
            Gaussian, Inc.  All Rights Reserved.
  
 This is part of the Gaussian(R) 09 program.  It is based on
 the Gaussian(R) 03 system (copyright 2003, Gaussian, Inc.),
 the Gaussian(R) 98 system (copyright 1998, Gaussian, Inc.),
 the Gaussian(R) 94 system (copyright 1995, Gaussian, Inc.),
 the Gaussian 92(TM) system (copyright 1992, Gaussian, Inc.),
 the Gaussian 90(TM) system (copyright 1990, Gaussian, Inc.),
 the Gaussian 88(TM) system (copyright 1988, Gaussian, Inc.),
 the Gaussian 86(TM) system (copyright 1986, Carnegie Mellon
 University), and the Gaussian 82(TM) system (copyright 1983,
 Carnegie Mellon University). Gaussian is a federally registered
 trademark of Gaussian, Inc.
  
 This software contains proprietary and confidential information,
 including trade secrets, belonging to Gaussian, Inc.
  
 This software is provided under written license and may be
 used, copied, transmitted, or stored only in accord with that
 written license.
  
 The following legend is applicable only to US Government
 contracts under FAR:
  
                    RESTRICTED RIGHTS LEGEND
  
 Use, reproduction and disclosure by the US Government is
 subject to restrictions as set forth in subparagraphs (a)
 and (c) of the Commercial Computer Software - Restricted
 Rights clause in FAR 52.227-19.
  
 Gaussian, Inc.
 340 Quinnipiac St., Bldg. 40, Wallingford CT 06492
  
  
 ---------------------------------------------------------------
 Warning -- This program may not be used in any manner that
 competes with the business of Gaussian, Inc. or will provide
 assistance to any competitor of Gaussian, Inc.  The licensee
 of this program is prohibited from giving any competitor of
 Gaussian, Inc. access to this program.  By using this program,
 the user acknowledges that Gaussian, Inc. is engaged in the
 business of creating and licensing software in the field of
 computational chemistry and represents and warrants to the
 licensee that it is not a competitor of Gaussian, Inc. and that
 it will not use this program in any manner prohibited above.
 ---------------------------------------------------------------
  

 Cite this work as:
 Gaussian 09, Revision D.01,
 M. J. Frisch, G. W. Trucks, H. B. Schlegel, G. E. Scuseria, 
 M. A. Robb, J. R. Cheeseman, G. Scalmani, V. Barone, B. Mennucci, 
 G. A. Petersson, H. Nakatsuji, M. Caricato, X. Li, H. P. Hratchian, 
 A. F. Izmaylov, J. Bloino, G. Zheng, J. L. Sonnenberg, M. Hada, 
 M. Ehara, K. Toyota, R. Fukuda, J. Hasegawa, M. Ishida, T. Nakajima, 
 Y. Honda, O. Kitao, H. Nakai, T. Vreven, J. A. Montgomery, Jr., 
 J. E. Peralta, F. Ogliaro, M. Bearpark, J. J. Heyd, E. Brothers, 
 K. N. Kudin, V. N. Staroverov, T. Keith, R. Kobayashi, J. Normand, 
 K. Raghavachari, A. Rendell, J. C. Burant, S. S. Iyengar, J. Tomasi, 
 M. Cossi, N. Rega, J. M. Millam, M. Klene, J. E. Knox, J. B. Cross, 
 V. Bakken, C. Adamo, J. Jaramillo, R. Gomperts, R. E. Stratmann, 
 O. Yazyev, A. J. Austin, R. Cammi, C. Pomelli, J. W. Ochterski, 
 R. L. Martin, K. Morokuma, V. G. Zakrzewski, G. A. Voth, 
 P. Salvador, J. J. Dannenberg, S. Dapprich, A. D. Daniels, 
 O. Farkas, J. B. Foresman, J. V. Ortiz, J. Cioslowski, 
 and D. J. Fox, Gaussian, Inc., Wallingford CT, 2013.
 
 ******************************************
 Gaussian 09:  EM64L-G09RevD.01 24-Apr-2013
                14-Sep-2018 
 ******************************************
 %chk=Acrolina_Din_79.chk
 %nprocshared=10
 Will use up to   10 processors via shared memory.
 -------------------------------------------
 #p td=(nstates=15)/6-31+g(d) lc-wpbe charge
 -------------------------------------------
 1/18=10,28=-2,38=1,125=101/1;
 2/12=2,17=6,18=5,40=1/2;
 3/5=1,6=6,7=11,11=9,16=1,25=1,30=1,74=-41/1,2,8,3;
 4//1;
 5/5=2,38=5/2;
 8/6=1,10=2,108=15/1;
 9/41=15,42=1,70=2/14;
 6/7=2,8=2,9=2,10=2/1;
 99/5=1,9=1/99;
 Leave Link    1 at Fri Sep 14 17:29:20 2018, MaxMem=           0 cpu:         3.0
 (Enter /usr/local/pacerepov1/gaussian/G09D01LINDA/g09/l101.exe)
 ------------------
 Acroleina in Water
 ------------------
 Symbolic Z-matrix:
 Charge =  0 Multiplicity = 1
 C                     0.48515   0.48044  -1.43014 
 H                     1.4614    0.18777  -1.05573 
 H                     0.42924   0.87885  -2.43706 
 C                    -0.60513   0.34656  -0.65843 
 H                    -1.59169   0.63289  -1.01241 
 C                    -0.50852  -0.19911   0.7128 
 H                    -1.45849  -0.27211   1.27244 
 O                     0.54488  -0.56132   1.23652 
 O                    -0.7517   -0.27643   2.87913 
 H                    -0.33287  -0.58625   2.02556 
 H                    -0.03815  -0.11361   3.5606 
 O                     1.62618  -3.02283   1.99494 
 H                     0.99132  -2.43433   1.49427 
 H                     1.12994  -3.8063    2.36892 
 O                     3.44172   2.62816   0.05074 
 H                     3.27573   3.37894  -0.58868 
 H                     2.85304   2.7364    0.85183 
 O                     2.83155   4.47945  -1.04967 
 H                     3.43849   5.0251   -1.6275 
 H                     1.88024   4.67069  -1.29155 
 O                     0.70409   4.87762  -1.69266 
 H                     0.82034   5.60707  -2.36675 
 H                    -0.27035   4.68896  -1.57045 
 O                     2.90027  -1.62504   3.42432 
 H                     3.80745  -1.36253   3.09544 
 H                     2.4604   -2.21876   2.75049 
 O                    -2.72479  -1.0722    4.01781 
 H                    -2.44747  -1.80655   4.63737 
 H                    -1.99995  -0.90942   3.34839 
 O                     3.44106  -4.31717   0.93908 
 H                     2.71256  -3.67192   1.16929 
 H                     3.72657  -4.80552   1.76371 
 O                     1.14282  -0.21476   4.36201 
 H                     1.50571   0.57959   4.84919 
 H                     1.88312  -0.66795   3.86543 
 O                     3.52553   5.75277   0.92073 
 H                     3.16489   5.24496   0.13835 
 H                     3.42992   6.73413   0.75385 
 O                    -1.77883   5.6805    0.89766 
 H                    -2.67195   5.28549   1.11303 
 H                    -1.06029   5.1346    1.32863 
 O                     5.80313   2.26797  -0.32928 
 H                     6.14316   2.29738  -1.26924 
 H                     4.80656   2.18527  -0.33783 
 O                    -4.23722   0.12631   2.57278 
 H                    -3.62521   0.54832   1.9039 
 H                    -3.69588  -0.29744   3.29902 
 O                    -1.97399   5.39974  -1.40088 
 H                    -2.87718   5.01737  -1.59597 
 H                    -1.83884   5.44715  -0.41118 
 
 NAtoms=     50 NQM=       50 NQMF=       0 NMMI=      0 NMMIF=      0
                NMic=       0 NMicF=      0.
                    Isotopes and Nuclear Properties:
 (Nuclear quadrupole moments (NQMom) in fm**2, nuclear magnetic moments (NMagM)
  in nuclear magnetons)

  Atom         1           2           3           4           5           6           7           8           9          10
 IAtWgt=          12           1           1          12           1          12           1          16          16           1
 AtmWgt=  12.0000000   1.0078250   1.0078250  12.0000000   1.0078250  12.0000000   1.0078250  15.9949146  15.9949146   1.0078250
 NucSpn=           0           1           1           0           1           0           1           0           0           1
 AtZEff=   0.0000000   0.0000000   0.0000000   0.0000000   0.0000000   0.0000000   0.0000000   0.0000000   0.0000000   0.0000000
 NQMom=    0.0000000   0.0000000   0.0000000   0.0000000   0.0000000   0.0000000   0.0000000   0.0000000   0.0000000   0.0000000
 NMagM=    0.0000000   2.7928460   2.7928460   0.0000000   2.7928460   0.0000000   2.7928460   0.0000000   0.0000000   2.7928460
 AtZNuc=   6.0000000   1.0000000   1.0000000   6.0000000   1.0000000   6.0000000   1.0000000   8.0000000   8.0000000   1.0000000

  Atom        11          12          13          14          15          16          17          18          19          20
 IAtWgt=           1          16           1           1          16           1           1          16           1           1
 AtmWgt=   1.0078250  15.9949146   1.0078250   1.0078250  15.9949146   1.0078250   1.0078250  15.9949146   1.0078250   1.0078250
 NucSpn=           1           0           1           1           0           1           1           0           1           1
 AtZEff=   0.0000000   0.0000000   0.0000000   0.0000000   0.0000000   0.0000000   0.0000000   0.0000000   0.0000000   0.0000000
 NQMom=    0.0000000   0.0000000   0.0000000   0.0000000   0.0000000   0.0000000   0.0000000   0.0000000   0.0000000   0.0000000
 NMagM=    2.7928460   0.0000000   2.7928460   2.7928460   0.0000000   2.7928460   2.7928460   0.0000000   2.7928460   2.7928460
 AtZNuc=   1.0000000   8.0000000   1.0000000   1.0000000   8.0000000   1.0000000   1.0000000   8.0000000   1.0000000   1.0000000

  Atom        21          22          23          24          25          26          27          28          29          30
 IAtWgt=          16           1           1          16           1           1          16           1           1          16
 AtmWgt=  15.9949146   1.0078250   1.0078250  15.9949146   1.0078250   1.0078250  15.9949146   1.0078250   1.0078250  15.9949146
 NucSpn=           0           1           1           0           1           1           0           1           1           0
 AtZEff=   0.0000000   0.0000000   0.0000000   0.0000000   0.0000000   0.0000000   0.0000000   0.0000000   0.0000000   0.0000000
 NQMom=    0.0000000   0.0000000   0.0000000   0.0000000   0.0000000   0.0000000   0.0000000   0.0000000   0.0000000   0.0000000
 NMagM=    0.0000000   2.7928460   2.7928460   0.0000000   2.7928460   2.7928460   0.0000000   2.7928460   2.7928460   0.0000000
 AtZNuc=   8.0000000   1.0000000   1.0000000   8.0000000   1.0000000   1.0000000   8.0000000   1.0000000   1.0000000   8.0000000

  Atom        31          32          33          34          35          36          37          38          39          40
 IAtWgt=           1           1          16           1           1          16           1           1          16           1
 AtmWgt=   1.0078250   1.0078250  15.9949146   1.0078250   1.0078250  15.9949146   1.0078250   1.0078250  15.9949146   1.0078250
 NucSpn=           1           1           0           1           1           0           1           1           0           1
 AtZEff=   0.0000000   0.0000000   0.0000000   0.0000000   0.0000000   0.0000000   0.0000000   0.0000000   0.0000000   0.0000000
 NQMom=    0.0000000   0.0000000   0.0000000   0.0000000   0.0000000   0.0000000   0.0000000   0.0000000   0.0000000   0.0000000
 NMagM=    2.7928460   2.7928460   0.0000000   2.7928460   2.7928460   0.0000000   2.7928460   2.7928460   0.0000000   2.7928460
 AtZNuc=   1.0000000   1.0000000   8.0000000   1.0000000   1.0000000   8.0000000   1.0000000   1.0000000   8.0000000   1.0000000

  Atom        41          42          43          44          45          46          47          48          49          50
 IAtWgt=           1          16           1           1          16           1           1          16           1           1
 AtmWgt=   1.0078250  15.9949146   1.0078250   1.0078250  15.9949146   1.0078250   1.0078250  15.9949146   1.0078250   1.0078250
 NucSpn=           1           0           1           1           0           1           1           0           1           1
 AtZEff=   0.0000000   0.0000000   0.0000000   0.0000000   0.0000000   0.0000000   0.0000000   0.0000000   0.0000000   0.0000000
 NQMom=    0.0000000   0.0000000   0.0000000   0.0000000   0.0000000   0.0000000   0.0000000   0.0000000   0.0000000   0.0000000
 NMagM=    2.7928460   0.0000000   2.7928460   2.7928460   0.0000000   2.7928460   2.7928460   0.0000000   2.7928460   2.7928460
 AtZNuc=   1.0000000   8.0000000   1.0000000   1.0000000   8.0000000   1.0000000   1.0000000   8.0000000   1.0000000   1.0000000
 Background charge distribution read from input stream:
 Point Charges:
 XYZ=   -3.9434    4.2863   -1.9581 Q=   -0.8200 A=    0.0000 R=    0.0000 C=    0.0000
 XYZ=   -4.5230    5.0215   -1.6066 Q=    0.4100 A=    0.0000 R=    0.0000 C=    0.0000
 XYZ=   -4.3527    3.4023   -1.7321 Q=    0.4100 A=    0.0000 R=    0.0000 C=    0.0000
 XYZ=    0.2600   -5.1317    2.7567 Q=   -0.8200 A=    0.0000 R=    0.0000 C=    0.0000
 XYZ=   -0.0987   -5.8006    2.1057 Q=    0.4100 A=    0.0000 R=    0.0000 C=    0.0000
 XYZ=    0.7304   -5.6085    3.4993 Q=    0.4100 A=    0.0000 R=    0.0000 C=    0.0000
 XYZ=    0.2863   -2.1431    5.7125 Q=   -0.8200 A=    0.0000 R=    0.0000 C=    0.0000
 XYZ=    0.7145   -1.5193    5.0586 Q=    0.4100 A=    0.0000 R=    0.0000 C=    0.0000
 XYZ=   -0.5526   -2.5166    5.3164 Q=    0.4100 A=    0.0000 R=    0.0000 C=    0.0000
 XYZ=    1.8106    6.2962    2.7167 Q=   -0.8200 A=    0.0000 R=    0.0000 C=    0.0000
 XYZ=    1.3570    6.9773    2.1419 Q=    0.4100 A=    0.0000 R=    0.0000 C=    0.0000
 XYZ=    2.4065    5.7263    2.1509 Q=    0.4100 A=    0.0000 R=    0.0000 C=    0.0000
 XYZ=   -5.5502   -1.3530    1.4195 Q=   -0.8200 A=    0.0000 R=    0.0000 C=    0.0000
 XYZ=   -5.0414   -0.5984    1.8340 Q=    0.4100 A=    0.0000 R=    0.0000 C=    0.0000
 XYZ=   -5.2044   -2.2221    1.7731 Q=    0.4100 A=    0.0000 R=    0.0000 C=    0.0000
 XYZ=   -6.3738   -1.2664   -0.8900 Q=   -0.8200 A=    0.0000 R=    0.0000 C=    0.0000
 XYZ=   -5.8448   -1.0262   -0.0761 Q=    0.4100 A=    0.0000 R=    0.0000 C=    0.0000
 XYZ=   -6.5589   -2.2491   -0.8891 Q=    0.4100 A=    0.0000 R=    0.0000 C=    0.0000
 XYZ=   -2.1977    3.5738   -5.2677 Q=   -0.8200 A=    0.0000 R=    0.0000 C=    0.0000
 XYZ=   -2.8267    4.1723   -4.7714 Q=    0.4100 A=    0.0000 R=    0.0000 C=    0.0000
 XYZ=   -1.4498    4.1181   -5.6476 Q=    0.4100 A=    0.0000 R=    0.0000 C=    0.0000
 XYZ=   -1.8005   -5.1134    4.0328 Q=   -0.8200 A=    0.0000 R=    0.0000 C=    0.0000
 XYZ=   -1.0462   -5.0836    3.3768 Q=    0.4100 A=    0.0000 R=    0.0000 C=    0.0000
 XYZ=   -1.6992   -5.9160    4.6208 Q=    0.4100 A=    0.0000 R=    0.0000 C=    0.0000
 XYZ=   -3.8822    4.8047   -4.2823 Q=   -0.8200 A=    0.0000 R=    0.0000 C=    0.0000
 XYZ=   -3.7391    4.4992   -3.3408 Q=    0.4100 A=    0.0000 R=    0.0000 C=    0.0000
 XYZ=   -4.6637    4.3197   -4.6748 Q=    0.4100 A=    0.0000 R=    0.0000 C=    0.0000
 XYZ=    5.1678   -0.9736    2.9140 Q=   -0.8200 A=    0.0000 R=    0.0000 C=    0.0000
 XYZ=    5.4732   -0.1226    3.3414 Q=    0.4100 A=    0.0000 R=    0.0000 C=    0.0000
 XYZ=    5.5845   -1.0602    2.0090 Q=    0.4100 A=    0.0000 R=    0.0000 C=    0.0000
 XYZ=   -3.6809    1.7676   -5.9395 Q=   -0.8200 A=    0.0000 R=    0.0000 C=    0.0000
 XYZ=   -3.4051    0.8786   -5.5739 Q=    0.4100 A=    0.0000 R=    0.0000 C=    0.0000
 XYZ=   -2.9692    2.4429   -5.7458 Q=    0.4100 A=    0.0000 R=    0.0000 C=    0.0000
 XYZ=   -1.3192    6.8127   -2.9703 Q=   -0.8200 A=    0.0000 R=    0.0000 C=    0.0000
 XYZ=   -1.6716    6.1288   -2.3315 Q=    0.4100 A=    0.0000 R=    0.0000 C=    0.0000
 XYZ=   -1.3795    7.7200   -2.5540 Q=    0.4100 A=    0.0000 R=    0.0000 C=    0.0000
 XYZ=   -6.1255   -4.0094   -0.4623 Q=   -0.8200 A=    0.0000 R=    0.0000 C=    0.0000
 XYZ=   -5.6749   -4.7804   -0.9124 Q=    0.4100 A=    0.0000 R=    0.0000 C=    0.0000
 XYZ=   -5.5892   -3.7284    0.3336 Q=    0.4100 A=    0.0000 R=    0.0000 C=    0.0000
 XYZ=   -2.5180   -6.4647    0.4598 Q=   -0.8200 A=    0.0000 R=    0.0000 C=    0.0000
 XYZ=   -2.6854   -7.4496    0.4136 Q=    0.4100 A=    0.0000 R=    0.0000 C=    0.0000
 XYZ=   -2.9769   -6.0125   -0.3050 Q=    0.4100 A=    0.0000 R=    0.0000 C=    0.0000
 XYZ=    3.5719   -2.6661    5.4763 Q=   -0.8200 A=    0.0000 R=    0.0000 C=    0.0000
 XYZ=    3.0081   -2.2553    4.7598 Q=    0.4100 A=    0.0000 R=    0.0000 C=    0.0000
 XYZ=    3.8268   -1.9654    6.1427 Q=    0.4100 A=    0.0000 R=    0.0000 C=    0.0000
 XYZ=    0.9346    6.3450   -3.6583 Q=   -0.8200 A=    0.0000 R=    0.0000 C=    0.0000
 XYZ=   -0.0596    6.3916   -3.5605 Q=    0.4100 A=    0.0000 R=    0.0000 C=    0.0000
 XYZ=    1.1639    5.9569   -4.5509 Q=    0.4100 A=    0.0000 R=    0.0000 C=    0.0000
 XYZ=   -1.9178   -2.9547    5.1681 Q=   -0.8200 A=    0.0000 R=    0.0000 C=    0.0000
 XYZ=   -2.5211   -3.0362    5.9614 Q=    0.4100 A=    0.0000 R=    0.0000 C=    0.0000
 XYZ=   -1.9979   -3.7757    4.6027 Q=    0.4100 A=    0.0000 R=    0.0000 C=    0.0000
 XYZ=   -1.1073    7.9288    0.4482 Q=   -0.8200 A=    0.0000 R=    0.0000 C=    0.0000
 XYZ=   -1.6272    8.4118    1.1528 Q=    0.4100 A=    0.0000 R=    0.0000 C=    0.0000
 XYZ=   -1.3532    6.9595    0.4582 Q=    0.4100 A=    0.0000 R=    0.0000 C=    0.0000
 XYZ=   -0.3713   -6.6465    1.2578 Q=   -0.8200 A=    0.0000 R=    0.0000 C=    0.0000
 XYZ=    0.2536   -6.4397    0.5050 Q=    0.4100 A=    0.0000 R=    0.0000 C=    0.0000
 XYZ=   -1.3134   -6.6310    0.9227 Q=    0.4100 A=    0.0000 R=    0.0000 C=    0.0000
 XYZ=    3.3624   -6.2339   -0.2826 Q=   -0.8200 A=    0.0000 R=    0.0000 C=    0.0000
 XYZ=    3.2933   -5.3507    0.1813 Q=    0.4100 A=    0.0000 R=    0.0000 C=    0.0000
 XYZ=    3.8409   -6.1168   -1.1528 Q=    0.4100 A=    0.0000 R=    0.0000 C=    0.0000
 XYZ=   -5.0557   -3.6629    2.2021 Q=   -0.8200 A=    0.0000 R=    0.0000 C=    0.0000
 XYZ=   -5.5168   -3.5343    3.0801 Q=    0.4100 A=    0.0000 R=    0.0000 C=    0.0000
 XYZ=   -4.3574   -4.3729    2.2932 Q=    0.4100 A=    0.0000 R=    0.0000 C=    0.0000
 XYZ=    4.2155    6.0822   -2.2679 Q=   -0.8200 A=    0.0000 R=    0.0000 C=    0.0000
 XYZ=    4.7370    6.8340   -1.8643 Q=    0.4100 A=    0.0000 R=    0.0000 C=    0.0000
 XYZ=    4.8337    5.4836   -2.7772 Q=    0.4100 A=    0.0000 R=    0.0000 C=    0.0000
 XYZ=   -5.9335    3.1011    0.4961 Q=   -0.8200 A=    0.0000 R=    0.0000 C=    0.0000
 XYZ=   -5.1070    3.6194    0.7157 Q=    0.4100 A=    0.0000 R=    0.0000 C=    0.0000
 XYZ=   -6.0259    3.0262   -0.4969 Q=    0.4100 A=    0.0000 R=    0.0000 C=    0.0000
 XYZ=   -5.9942    2.6894   -1.7482 Q=   -0.8200 A=    0.0000 R=    0.0000 C=    0.0000
 XYZ=   -6.4327    1.7967   -1.8520 Q=    0.4100 A=    0.0000 R=    0.0000 C=    0.0000
 XYZ=   -6.0091    3.1719   -2.6240 Q=    0.4100 A=    0.0000 R=    0.0000 C=    0.0000
 XYZ=    5.3872    5.3084    2.3645 Q=   -0.8200 A=    0.0000 R=    0.0000 C=    0.0000
 XYZ=    4.9012    5.2212    3.2341 Q=    0.4100 A=    0.0000 R=    0.0000 C=    0.0000
 XYZ=    4.7317    5.4999    1.6340 Q=    0.4100 A=    0.0000 R=    0.0000 C=    0.0000
 XYZ=    2.7685    1.2761    5.8693 Q=   -0.8200 A=    0.0000 R=    0.0000 C=    0.0000
 XYZ=    3.0290    0.4399    6.3520 Q=    0.4100 A=    0.0000 R=    0.0000 C=    0.0000
 XYZ=    3.5916    1.7815    5.6104 Q=    0.4100 A=    0.0000 R=    0.0000 C=    0.0000
 XYZ=   -4.1567    4.6894    1.0791 Q=   -0.8200 A=    0.0000 R=    0.0000 C=    0.0000
 XYZ=   -4.5598    5.3812    0.4798 Q=    0.4100 A=    0.0000 R=    0.0000 C=    0.0000
 XYZ=   -4.5850    4.7397    1.9813 Q=    0.4100 A=    0.0000 R=    0.0000 C=    0.0000
 XYZ=    2.4149    7.6341   -2.5439 Q=   -0.8200 A=    0.0000 R=    0.0000 C=    0.0000
 XYZ=    3.2321    7.0672   -2.6482 Q=    0.4100 A=    0.0000 R=    0.0000 C=    0.0000
 XYZ=    1.6398    7.1869   -2.9904 Q=    0.4100 A=    0.0000 R=    0.0000 C=    0.0000
 XYZ=    5.6980    0.9867    4.1604 Q=   -0.8200 A=    0.0000 R=    0.0000 C=    0.0000
 XYZ=    5.8762    0.2836    4.8488 Q=    0.4100 A=    0.0000 R=    0.0000 C=    0.0000
 XYZ=    5.1766    1.7333    4.5737 Q=    0.4100 A=    0.0000 R=    0.0000 C=    0.0000
 XYZ=   -6.9288    0.6149   -2.1276 Q=   -0.8200 A=    0.0000 R=    0.0000 C=    0.0000
 XYZ=   -6.8632    0.3874   -3.0992 Q=    0.4100 A=    0.0000 R=    0.0000 C=    0.0000
 XYZ=   -6.7291   -0.1982   -1.5807 Q=    0.4100 A=    0.0000 R=    0.0000 C=    0.0000
 XYZ=   -3.6005   -5.5876    2.4753 Q=   -0.8200 A=    0.0000 R=    0.0000 C=    0.0000
 XYZ=   -2.8028   -5.4859    3.0697 Q=    0.4100 A=    0.0000 R=    0.0000 C=    0.0000
 XYZ=   -3.3091   -5.9303    1.5821 Q=    0.4100 A=    0.0000 R=    0.0000 C=    0.0000
 XYZ=    5.5105   -4.4054   -0.3502 Q=   -0.8200 A=    0.0000 R=    0.0000 C=    0.0000
 XYZ=    4.6781   -4.3761    0.2034 Q=    0.4100 A=    0.0000 R=    0.0000 C=    0.0000
 XYZ=    5.3622   -4.9951   -1.1441 Q=    0.4100 A=    0.0000 R=    0.0000 C=    0.0000
 XYZ=    0.9137   -6.5978   -0.6386 Q=   -0.8200 A=    0.0000 R=    0.0000 C=    0.0000
 XYZ=    1.8718   -6.4116   -0.4208 Q=    0.4100 A=    0.0000 R=    0.0000 C=    0.0000
 XYZ=    0.8606   -7.1156   -1.4924 Q=    0.4100 A=    0.0000 R=    0.0000 C=    0.0000
 XYZ=    2.8760    7.9063   -0.0794 Q=   -0.8200 A=    0.0000 R=    0.0000 C=    0.0000
 XYZ=    2.1521    8.0948    0.5844 Q=    0.4100 A=    0.0000 R=    0.0000 C=    0.0000
 XYZ=    2.4713    7.7665   -0.9831 Q=    0.4100 A=    0.0000 R=    0.0000 C=    0.0000
 XYZ=    6.9436    3.5800    1.3238 Q=   -0.8200 A=    0.0000 R=    0.0000 C=    0.0000
 XYZ=    6.2005    4.0412    1.8086 Q=    0.4100 A=    0.0000 R=    0.0000 C=    0.0000
 XYZ=    6.5629    3.0051    0.5996 Q=    0.4100 A=    0.0000 R=    0.0000 C=    0.0000
 XYZ=    7.6939    0.7079    0.5108 Q=   -0.8200 A=    0.0000 R=    0.0000 C=    0.0000
 XYZ=    6.9613    1.3319    0.2384 Q=    0.4100 A=    0.0000 R=    0.0000 C=    0.0000
 XYZ=    7.3191   -0.0100    1.0974 Q=    0.4100 A=    0.0000 R=    0.0000 C=    0.0000
 XYZ=   -4.6465   -1.5098    5.4698 Q=   -0.8200 A=    0.0000 R=    0.0000 C=    0.0000
 XYZ=   -3.8472   -1.4049    4.8781 Q=    0.4100 A=    0.0000 R=    0.0000 C=    0.0000
 XYZ=   -4.3547   -1.8339    6.3697 Q=    0.4100 A=    0.0000 R=    0.0000 C=    0.0000
 XYZ=    0.9653    8.0998    1.4353 Q=   -0.8200 A=    0.0000 R=    0.0000 C=    0.0000
 XYZ=    0.7685    8.7328    2.1841 Q=    0.4100 A=    0.0000 R=    0.0000 C=    0.0000
 XYZ=    0.1532    8.0011    0.8602 Q=    0.4100 A=    0.0000 R=    0.0000 C=    0.0000
 XYZ=    4.4792    2.6772    5.2511 Q=   -0.8200 A=    0.0000 R=    0.0000 C=    0.0000
 XYZ=    4.9565    2.6802    6.1298 Q=    0.4100 A=    0.0000 R=    0.0000 C=    0.0000
 XYZ=    4.1114    3.5891    5.0685 Q=    0.4100 A=    0.0000 R=    0.0000 C=    0.0000
 XYZ=    6.4855    2.3491   -2.4579 Q=   -0.8200 A=    0.0000 R=    0.0000 C=    0.0000
 XYZ=    6.1037    3.1951   -2.8301 Q=    0.4100 A=    0.0000 R=    0.0000 C=    0.0000
 XYZ=    6.6835    1.7154   -3.2058 Q=    0.4100 A=    0.0000 R=    0.0000 C=    0.0000
 XYZ=   -5.8719    1.3717    3.7381 Q=   -0.8200 A=    0.0000 R=    0.0000 C=    0.0000
 XYZ=   -5.0499    1.0014    3.3054 Q=    0.4100 A=    0.0000 R=    0.0000 C=    0.0000
 XYZ=   -6.3364    0.6465    4.2465 Q=    0.4100 A=    0.0000 R=    0.0000 C=    0.0000
 XYZ=   -5.5300    3.4582   -5.6293 Q=   -0.8200 A=    0.0000 R=    0.0000 C=    0.0000
 XYZ=   -5.7072    3.6385   -6.5968 Q=    0.4100 A=    0.0000 R=    0.0000 C=    0.0000
 XYZ=   -4.8129    2.7663   -5.5451 Q=    0.4100 A=    0.0000 R=    0.0000 C=    0.0000
 XYZ=    1.7497   -4.0317    6.2857 Q=   -0.8200 A=    0.0000 R=    0.0000 C=    0.0000
 XYZ=    2.6703   -3.6917    6.0939 Q=    0.4100 A=    0.0000 R=    0.0000 C=    0.0000
 XYZ=    1.0955   -3.2783    6.2189 Q=    0.4100 A=    0.0000 R=    0.0000 C=    0.0000
 XYZ=    6.7135   -1.5117    1.2958 Q=   -0.8200 A=    0.0000 R=    0.0000 C=    0.0000
 XYZ=    6.8909   -1.9043    0.3933 Q=    0.4100 A=    0.0000 R=    0.0000 C=    0.0000
 XYZ=    6.9778   -2.1680    2.0025 Q=    0.4100 A=    0.0000 R=    0.0000 C=    0.0000
 XYZ=   -7.8734   -0.6293    1.7261 Q=   -0.8200 A=    0.0000 R=    0.0000 C=    0.0000
 XYZ=   -7.0529   -1.0574    1.3473 Q=    0.4100 A=    0.0000 R=    0.0000 C=    0.0000
 XYZ=   -7.7021    0.3443    1.8768 Q=    0.4100 A=    0.0000 R=    0.0000 C=    0.0000
 XYZ=    5.8580   -2.6643    4.4506 Q=   -0.8200 A=    0.0000 R=    0.0000 C=    0.0000
 XYZ=    5.5150   -1.9854    3.8014 Q=    0.4100 A=    0.0000 R=    0.0000 C=    0.0000
 XYZ=    5.0952   -3.0320    4.9825 Q=    0.4100 A=    0.0000 R=    0.0000 C=    0.0000
 XYZ=    3.8884   -5.7565    2.7476 Q=   -0.8200 A=    0.0000 R=    0.0000 C=    0.0000
 XYZ=    3.2061   -5.6819    3.4748 Q=    0.4100 A=    0.0000 R=    0.0000 C=    0.0000
 XYZ=    3.6857   -6.5552    2.1809 Q=    0.4100 A=    0.0000 R=    0.0000 C=    0.0000
 XYZ=    1.8524    3.0732    7.0724 Q=   -0.8200 A=    0.0000 R=    0.0000 C=    0.0000
 XYZ=    2.1354    2.2688    6.5499 Q=    0.4100 A=    0.0000 R=    0.0000 C=    0.0000
 XYZ=    0.9999    2.8737    7.5557 Q=    0.4100 A=    0.0000 R=    0.0000 C=    0.0000
 XYZ=   -1.0728    0.5137    7.1585 Q=   -0.8200 A=    0.0000 R=    0.0000 C=    0.0000
 XYZ=   -1.0863   -0.3953    7.5753 Q=    0.4100 A=    0.0000 R=    0.0000 C=    0.0000
 XYZ=   -1.5525    0.4853    6.2815 Q=    0.4100 A=    0.0000 R=    0.0000 C=    0.0000
 XYZ=    1.9248   -5.6993    4.4560 Q=   -0.8200 A=    0.0000 R=    0.0000 C=    0.0000
 XYZ=    1.2145   -6.3975    4.5468 Q=    0.4100 A=    0.0000 R=    0.0000 C=    0.0000
 XYZ=    1.8394   -5.0382    5.2015 Q=    0.4100 A=    0.0000 R=    0.0000 C=    0.0000
 XYZ=    5.8303    4.5895   -3.3080 Q=   -0.8200 A=    0.0000 R=    0.0000 C=    0.0000
 XYZ=    6.7740    4.7433   -3.0149 Q=    0.4100 A=    0.0000 R=    0.0000 C=    0.0000
 XYZ=    5.7574    4.7469   -4.2929 Q=    0.4100 A=    0.0000 R=    0.0000 C=    0.0000
 XYZ=    7.4821    2.2079    3.2009 Q=   -0.8200 A=    0.0000 R=    0.0000 C=    0.0000
 XYZ=    7.0660    2.5083    2.3427 Q=    0.4100 A=    0.0000 R=    0.0000 C=    0.0000
 XYZ=    6.8195    1.6703    3.7224 Q=    0.4100 A=    0.0000 R=    0.0000 C=    0.0000
 XYZ=   -5.2685   -5.9108   -1.7481 Q=   -0.8200 A=    0.0000 R=    0.0000 C=    0.0000
 XYZ=   -5.2656   -5.9373   -2.7478 Q=    0.4100 A=    0.0000 R=    0.0000 C=    0.0000
 XYZ=   -5.1613   -6.8383   -1.3899 Q=    0.4100 A=    0.0000 R=    0.0000 C=    0.0000
 XYZ=    2.1795    6.8935    4.9367 Q=   -0.8200 A=    0.0000 R=    0.0000 C=    0.0000
 XYZ=    2.0209    6.7564    3.9588 Q=    0.4100 A=    0.0000 R=    0.0000 C=    0.0000
 XYZ=    1.7996    6.1222    5.4473 Q=    0.4100 A=    0.0000 R=    0.0000 C=    0.0000
 XYZ=   -1.0451   -1.8067    7.6963 Q=   -0.8200 A=    0.0000 R=    0.0000 C=    0.0000
 XYZ=   -0.3403   -1.8710    6.9899 Q=    0.4100 A=    0.0000 R=    0.0000 C=    0.0000
 XYZ=   -0.6707   -2.1176    8.5699 Q=    0.4100 A=    0.0000 R=    0.0000 C=    0.0000
 XYZ=    4.2003    5.1153    4.5893 Q=   -0.8200 A=    0.0000 R=    0.0000 C=    0.0000
 XYZ=    5.1231    5.4197    4.8256 Q=    0.4100 A=    0.0000 R=    0.0000 C=    0.0000
 XYZ=    3.5315    5.7583    4.9626 Q=    0.4100 A=    0.0000 R=    0.0000 C=    0.0000
 XYZ=   -2.7069    6.8662   -4.7793 Q=   -0.8200 A=    0.0000 R=    0.0000 C=    0.0000
 XYZ=   -2.0104    6.9325   -4.0648 Q=    0.4100 A=    0.0000 R=    0.0000 C=    0.0000
 XYZ=   -3.2063    6.0056   -4.6791 Q=    0.4100 A=    0.0000 R=    0.0000 C=    0.0000
 XYZ=   -0.9718    5.5155   -6.0284 Q=   -0.8200 A=    0.0000 R=    0.0000 C=    0.0000
 XYZ=    0.0076    5.6286   -5.8612 Q=    0.4100 A=    0.0000 R=    0.0000 C=    0.0000
 XYZ=   -1.4713    6.2735   -5.6087 Q=    0.4100 A=    0.0000 R=    0.0000 C=    0.0000
 XYZ=    1.5855    5.5875   -5.9190 Q=   -0.8200 A=    0.0000 R=    0.0000 C=    0.0000
 XYZ=    2.5546    5.6926   -5.6955 Q=    0.4100 A=    0.0000 R=    0.0000 C=    0.0000
 XYZ=    1.4878    4.9592   -6.6909 Q=    0.4100 A=    0.0000 R=    0.0000 C=    0.0000
 XYZ=   -1.0798    9.0300   -1.7237 Q=   -0.8200 A=    0.0000 R=    0.0000 C=    0.0000
 XYZ=   -0.1785    9.2684   -2.0855 Q=    0.4100 A=    0.0000 R=    0.0000 C=    0.0000
 XYZ=   -0.9725    8.5351   -0.8613 Q=    0.4100 A=    0.0000 R=    0.0000 C=    0.0000
 XYZ=    4.6028   -0.0977   -4.9904 Q=   -0.8200 A=    0.0000 R=    0.0000 C=    0.0000
 XYZ=    4.3106    0.2009   -5.8989 Q=    0.4100 A=    0.0000 R=    0.0000 C=    0.0000
 XYZ=    5.3584    0.4778   -4.6775 Q=    0.4100 A=    0.0000 R=    0.0000 C=    0.0000
 XYZ=   -7.2879    1.7613    2.0161 Q=   -0.8200 A=    0.0000 R=    0.0000 C=    0.0000
 XYZ=   -6.7798    2.2036    1.2769 Q=    0.4100 A=    0.0000 R=    0.0000 C=    0.0000
 XYZ=   -6.6775    1.6041    2.7925 Q=    0.4100 A=    0.0000 R=    0.0000 C=    0.0000
 XYZ=   -5.3620    5.8869   -1.1300 Q=   -0.8200 A=    0.0000 R=    0.0000 C=    0.0000
 XYZ=   -4.9232    6.7824   -1.0560 Q=    0.4100 A=    0.0000 R=    0.0000 C=    0.0000
 XYZ=   -6.1670    5.9579   -1.7192 Q=    0.4100 A=    0.0000 R=    0.0000 C=    0.0000
 XYZ=    6.9149   -2.6579   -0.8916 Q=   -0.8200 A=    0.0000 R=    0.0000 C=    0.0000
 XYZ=    6.2950   -3.3461   -0.5145 Q=    0.4100 A=    0.0000 R=    0.0000 C=    0.0000
 XYZ=    7.7844   -3.0891   -1.1326 Q=    0.4100 A=    0.0000 R=    0.0000 C=    0.0000
 XYZ=   -4.3207    1.4386   -8.2107 Q=   -0.8200 A=    0.0000 R=    0.0000 C=    0.0000
 XYZ=   -4.4453    0.4806   -8.4687 Q=    0.4100 A=    0.0000 R=    0.0000 C=    0.0000
 XYZ=   -4.0000    1.4900   -7.2649 Q=    0.4100 A=    0.0000 R=    0.0000 C=    0.0000
 XYZ=   -0.5348   -8.5572    2.5226 Q=   -0.8200 A=    0.0000 R=    0.0000 C=    0.0000
 XYZ=   -0.4878   -7.8019    1.8689 Q=    0.4100 A=    0.0000 R=    0.0000 C=    0.0000
 XYZ=    0.0592   -9.3009    2.2158 Q=    0.4100 A=    0.0000 R=    0.0000 C=    0.0000
 XYZ=    1.1925    9.5694   -2.5384 Q=   -0.8200 A=    0.0000 R=    0.0000 C=    0.0000
 XYZ=    0.9825    9.7706   -3.4952 Q=    0.4100 A=    0.0000 R=    0.0000 C=    0.0000
 XYZ=    1.7379    8.7329   -2.4857 Q=    0.4100 A=    0.0000 R=    0.0000 C=    0.0000
 XYZ=    5.1889    7.8979   -1.3551 Q=   -0.8200 A=    0.0000 R=    0.0000 C=    0.0000
 XYZ=    4.3473    8.1666   -0.8867 Q=    0.4100 A=    0.0000 R=    0.0000 C=    0.0000
 XYZ=    5.9222    7.7856   -0.6846 Q=    0.4100 A=    0.0000 R=    0.0000 C=    0.0000
 XYZ=    3.4216    0.0978   -7.4668 Q=   -0.8200 A=    0.0000 R=    0.0000 C=    0.0000
 XYZ=    3.2814    0.9399   -7.9876 Q=    0.4100 A=    0.0000 R=    0.0000 C=    0.0000
 XYZ=    2.5822   -0.1336   -6.9750 Q=    0.4100 A=    0.0000 R=    0.0000 C=    0.0000
 XYZ=    1.1681    5.3241    6.6082 Q=   -0.8200 A=    0.0000 R=    0.0000 C=    0.0000
 XYZ=    1.5407    5.7129    7.4508 Q=    0.4100 A=    0.0000 R=    0.0000 C=    0.0000
 XYZ=    1.3394    4.3389    6.5915 Q=    0.4100 A=    0.0000 R=    0.0000 C=    0.0000
 XYZ=   -6.1231   -2.9744    4.2085 Q=   -0.8200 A=    0.0000 R=    0.0000 C=    0.0000
 XYZ=   -6.9500   -2.4156    4.1453 Q=    0.4100 A=    0.0000 R=    0.0000 C=    0.0000
 XYZ=   -5.4227   -2.4765    4.7198 Q=    0.4100 A=    0.0000 R=    0.0000 C=    0.0000
 XYZ=    8.4832    1.5290   -1.6044 Q=   -0.8200 A=    0.0000 R=    0.0000 C=    0.0000
 XYZ=    7.6146    1.9253   -1.9019 Q=    0.4100 A=    0.0000 R=    0.0000 C=    0.0000
 XYZ=    8.3430    1.0167   -0.7571 Q=    0.4100 A=    0.0000 R=    0.0000 C=    0.0000
 XYZ=    4.1679   -0.7679    6.9211 Q=   -0.8200 A=    0.0000 R=    0.0000 C=    0.0000
 XYZ=    4.4567   -0.7067    7.8765 Q=    0.4100 A=    0.0000 R=    0.0000 C=    0.0000
 XYZ=    4.9710   -0.7253    6.3268 Q=    0.4100 A=    0.0000 R=    0.0000 C=    0.0000
 XYZ=   -4.8405   -6.3508    4.2906 Q=   -0.8200 A=    0.0000 R=    0.0000 C=    0.0000
 XYZ=   -4.4380   -5.9161    3.4850 Q=    0.4100 A=    0.0000 R=    0.0000 C=    0.0000
 XYZ=   -5.7530   -5.9747    4.4514 Q=    0.4100 A=    0.0000 R=    0.0000 C=    0.0000
 XYZ=   -7.0363    3.7740   -3.8209 Q=   -0.8200 A=    0.0000 R=    0.0000 C=    0.0000
 XYZ=   -6.4561    3.7859   -4.6353 Q=    0.4100 A=    0.0000 R=    0.0000 C=    0.0000
 XYZ=   -7.9289    3.3875   -4.0533 Q=    0.4100 A=    0.0000 R=    0.0000 C=    0.0000
 XYZ=   -7.5618    4.8712    0.8722 Q=   -0.8200 A=    0.0000 R=    0.0000 C=    0.0000
 XYZ=   -6.7315    4.3292    0.7419 Q=    0.4100 A=    0.0000 R=    0.0000 C=    0.0000
 XYZ=   -8.2443    4.3240    1.3570 Q=    0.4100 A=    0.0000 R=    0.0000 C=    0.0000
 XYZ=    7.0958   -1.5544   -3.0122 Q=   -0.8200 A=    0.0000 R=    0.0000 C=    0.0000
 XYZ=    8.0277   -1.1982   -2.9436 Q=    0.4100 A=    0.0000 R=    0.0000 C=    0.0000
 XYZ=    6.8918   -2.1114   -2.2071 Q=    0.4100 A=    0.0000 R=    0.0000 C=    0.0000
 XYZ=    0.2984   -7.2730    4.4307 Q=   -0.8200 A=    0.0000 R=    0.0000 C=    0.0000
 XYZ=   -0.4617   -7.1658    5.0716 Q=    0.4100 A=    0.0000 R=    0.0000 C=    0.0000
 XYZ=   -0.0084   -7.7935    3.6338 Q=    0.4100 A=    0.0000 R=    0.0000 C=    0.0000
 XYZ=   -5.7410   -5.6899   -4.0085 Q=   -0.8200 A=    0.0000 R=    0.0000 C=    0.0000
 XYZ=   -5.5645   -5.1520   -4.8329 Q=    0.4100 A=    0.0000 R=    0.0000 C=    0.0000
 XYZ=   -6.5766   -5.3610   -3.5686 Q=    0.4100 A=    0.0000 R=    0.0000 C=    0.0000
 XYZ=    6.2588   -5.6846    1.7034 Q=   -0.8200 A=    0.0000 R=    0.0000 C=    0.0000
 XYZ=    6.0343   -5.2356    0.8384 Q=    0.4100 A=    0.0000 R=    0.0000 C=    0.0000
 XYZ=    5.4263   -5.7981    2.2458 Q=    0.4100 A=    0.0000 R=    0.0000 C=    0.0000
 XYZ=   -9.2198    0.4606   -1.6670 Q=   -0.8200 A=    0.0000 R=    0.0000 C=    0.0000
 XYZ=   -9.5038    1.3946   -1.8840 Q=    0.4100 A=    0.0000 R=    0.0000 C=    0.0000
 XYZ=   -8.2385    0.3635   -1.8336 Q=    0.4100 A=    0.0000 R=    0.0000 C=    0.0000
 XYZ=    6.7328    0.7512   -4.1875 Q=   -0.8200 A=    0.0000 R=    0.0000 C=    0.0000
 XYZ=    7.1201    0.7081   -5.1085 Q=    0.4100 A=    0.0000 R=    0.0000 C=    0.0000
 XYZ=    6.8427   -0.1352   -3.7379 Q=    0.4100 A=    0.0000 R=    0.0000 C=    0.0000
 XYZ=    7.4558    6.4768    1.7471 Q=   -0.8200 A=    0.0000 R=    0.0000 C=    0.0000
 XYZ=    6.5428    6.1294    1.9615 Q=    0.4100 A=    0.0000 R=    0.0000 C=    0.0000
 XYZ=    8.1067    5.7177    1.7345 Q=    0.4100 A=    0.0000 R=    0.0000 C=    0.0000
 XYZ=   -1.7175    4.7056   -8.1395 Q=   -0.8200 A=    0.0000 R=    0.0000 C=    0.0000
 XYZ=   -1.2633    5.0610   -7.3225 Q=    0.4100 A=    0.0000 R=    0.0000 C=    0.0000
 XYZ=   -2.2879    5.4216   -8.5418 Q=    0.4100 A=    0.0000 R=    0.0000 C=    0.0000
 XYZ=   -3.1303   -2.8085    7.2056 Q=   -0.8200 A=    0.0000 R=    0.0000 C=    0.0000
 XYZ=   -2.2812   -2.3302    7.4299 Q=    0.4100 A=    0.0000 R=    0.0000 C=    0.0000
 XYZ=   -3.2888   -3.5368    7.8723 Q=    0.4100 A=    0.0000 R=    0.0000 C=    0.0000
 XYZ=    6.2504   -0.7097    5.8286 Q=   -0.8200 A=    0.0000 R=    0.0000 C=    0.0000
 XYZ=    6.9374   -0.3934    6.4828 Q=    0.4100 A=    0.0000 R=    0.0000 C=    0.0000
 XYZ=    6.5888   -1.5244    5.3576 Q=    0.4100 A=    0.0000 R=    0.0000 C=    0.0000
 XYZ=    4.9638   -5.9695   -2.1359 Q=   -0.8200 A=    0.0000 R=    0.0000 C=    0.0000
 XYZ=    5.8323   -6.4182   -1.9251 Q=    0.4100 A=    0.0000 R=    0.0000 C=    0.0000
 XYZ=    5.0255   -5.5276   -3.0308 Q=    0.4100 A=    0.0000 R=    0.0000 C=    0.0000
 XYZ=   -5.3373    4.8299    3.1771 Q=   -0.8200 A=    0.0000 R=    0.0000 C=    0.0000
 XYZ=   -6.0314    5.4077    2.7477 Q=    0.4100 A=    0.0000 R=    0.0000 C=    0.0000
 XYZ=   -5.7551    4.2996    3.9149 Q=    0.4100 A=    0.0000 R=    0.0000 C=    0.0000
 XYZ=    7.0970   -3.4651    2.5716 Q=   -0.8200 A=    0.0000 R=    0.0000 C=    0.0000
 XYZ=    6.7661   -3.0994    3.4415 Q=    0.4100 A=    0.0000 R=    0.0000 C=    0.0000
 XYZ=    6.6487   -4.3394    2.3855 Q=    0.4100 A=    0.0000 R=    0.0000 C=    0.0000
 XYZ=    5.8327   -2.3935   -4.7933 Q=   -0.8200 A=    0.0000 R=    0.0000 C=    0.0000
 XYZ=    6.4559   -2.1716   -4.0434 Q=    0.4100 A=    0.0000 R=    0.0000 C=    0.0000
 XYZ=    5.2632   -1.5978   -4.9999 Q=    0.4100 A=    0.0000 R=    0.0000 C=    0.0000
 XYZ=   -1.0711    4.6020    7.0860 Q=   -0.8200 A=    0.0000 R=    0.0000 C=    0.0000
 XYZ=   -0.2837    5.0697    6.6844 Q=    0.4100 A=    0.0000 R=    0.0000 C=    0.0000
 XYZ=   -0.8301    3.6512    7.2810 Q=    0.4100 A=    0.0000 R=    0.0000 C=    0.0000
 XYZ=   -6.6696   -0.3034    5.2649 Q=   -0.8200 A=    0.0000 R=    0.0000 C=    0.0000
 XYZ=   -7.3192   -0.8085    4.6966 Q=    0.4100 A=    0.0000 R=    0.0000 C=    0.0000
 XYZ=   -5.8287   -0.8357    5.3632 Q=    0.4100 A=    0.0000 R=    0.0000 C=    0.0000
 XYZ=    8.9695    4.3645    2.0161 Q=   -0.8200 A=    0.0000 R=    0.0000 C=    0.0000
 XYZ=    9.0981    3.9872    2.9333 Q=    0.4100 A=    0.0000 R=    0.0000 C=    0.0000
 XYZ=    8.1100    4.0253    1.6337 Q=    0.4100 A=    0.0000 R=    0.0000 C=    0.0000
 XYZ=   -8.0411   -6.1386    0.6591 Q=   -0.8200 A=    0.0000 R=    0.0000 C=    0.0000
 XYZ=   -8.7415   -6.4635    0.0236 Q=    0.4100 A=    0.0000 R=    0.0000 C=    0.0000
 XYZ=   -7.5644   -5.3563    0.2580 Q=    0.4100 A=    0.0000 R=    0.0000 C=    0.0000
 XYZ=   -7.0049    5.8479   -2.8089 Q=   -0.8200 A=    0.0000 R=    0.0000 C=    0.0000
 XYZ=   -7.2440    6.5275   -3.5024 Q=    0.4100 A=    0.0000 R=    0.0000 C=    0.0000
 XYZ=   -7.1279    4.9297   -3.1857 Q=    0.4100 A=    0.0000 R=    0.0000 C=    0.0000
 XYZ=   -0.1298    2.4144    8.1785 Q=   -0.8200 A=    0.0000 R=    0.0000 C=    0.0000
 XYZ=   -0.5087    1.5163    7.9553 Q=    0.4100 A=    0.0000 R=    0.0000 C=    0.0000
 XYZ=   -0.2117    2.5756    9.1621 Q=    0.4100 A=    0.0000 R=    0.0000 C=    0.0000
 XYZ=    0.5872   -4.6399    8.2918 Q=   -0.8200 A=    0.0000 R=    0.0000 C=    0.0000
 XYZ=    1.2113   -4.4166    7.5430 Q=    0.4100 A=    0.0000 R=    0.0000 C=    0.0000
 XYZ=    1.0452   -5.2525    8.9360 Q=    0.4100 A=    0.0000 R=    0.0000 C=    0.0000
 XYZ=   -6.2814    3.5206    4.6924 Q=   -0.8200 A=    0.0000 R=    0.0000 C=    0.0000
 XYZ=   -6.1166    3.3887    5.6699 Q=    0.4100 A=    0.0000 R=    0.0000 C=    0.0000
 XYZ=   -5.8945    2.7523    4.1825 Q=    0.4100 A=    0.0000 R=    0.0000 C=    0.0000
 XYZ=   -8.1277   -1.9227    3.8709 Q=   -0.8200 A=    0.0000 R=    0.0000 C=    0.0000
 XYZ=   -8.1460   -1.4996    2.9650 Q=    0.4100 A=    0.0000 R=    0.0000 C=    0.0000
 XYZ=   -8.8572   -2.6036    3.9355 Q=    0.4100 A=    0.0000 R=    0.0000 C=    0.0000
 XYZ=   -2.9600   -8.8275    0.3759 Q=   -0.8200 A=    0.0000 R=    0.0000 C=    0.0000
 XYZ=   -3.7197   -8.5282   -0.2016 Q=    0.4100 A=    0.0000 R=    0.0000 C=    0.0000
 XYZ=   -2.2733   -9.2863   -0.1880 Q=    0.4100 A=    0.0000 R=    0.0000 C=    0.0000
 XYZ=    5.5829   -4.6553   -4.1589 Q=   -0.8200 A=    0.0000 R=    0.0000 C=    0.0000
 XYZ=    5.4286   -3.6783   -4.3058 Q=    0.4100 A=    0.0000 R=    0.0000 C=    0.0000
 XYZ=    5.2332   -5.1694   -4.9422 Q=    0.4100 A=    0.0000 R=    0.0000 C=    0.0000
 XYZ=   -9.7411   -0.1800    0.3982 Q=   -0.8200 A=    0.0000 R=    0.0000 C=    0.0000
 XYZ=   -9.5140    0.0544   -0.5470 Q=    0.4100 A=    0.0000 R=    0.0000 C=    0.0000
 XYZ=   -8.9403   -0.5802    0.8439 Q=    0.4100 A=    0.0000 R=    0.0000 C=    0.0000
 XYZ=   -3.2678    9.5104   -2.1254 Q=   -0.8200 A=    0.0000 R=    0.0000 C=    0.0000
 XYZ=   -3.5943   10.2644   -1.5554 Q=    0.4100 A=    0.0000 R=    0.0000 C=    0.0000
 XYZ=   -2.3070    9.3272   -1.9175 Q=    0.4100 A=    0.0000 R=    0.0000 C=    0.0000
 XYZ=    5.9824    5.1367   -5.5772 Q=   -0.8200 A=    0.0000 R=    0.0000 C=    0.0000
 XYZ=    6.6999    5.8308   -5.6353 Q=    0.4100 A=    0.0000 R=    0.0000 C=    0.0000
 XYZ=    6.3202    4.2756   -5.9573 Q=    0.4100 A=    0.0000 R=    0.0000 C=    0.0000
 XYZ=   -4.9314   -8.1146   -1.0584 Q=   -0.8200 A=    0.0000 R=    0.0000 C=    0.0000
 XYZ=   -5.4720   -8.2293   -0.2249 Q=    0.4100 A=    0.0000 R=    0.0000 C=    0.0000
 XYZ=   -5.1939   -8.8126   -1.7246 Q=    0.4100 A=    0.0000 R=    0.0000 C=    0.0000
 XYZ=   -4.1700    6.6139    4.7128 Q=   -0.8200 A=    0.0000 R=    0.0000 C=    0.0000
 XYZ=   -4.9768    7.1067    5.0388 Q=    0.4100 A=    0.0000 R=    0.0000 C=    0.0000
 XYZ=   -4.4514    5.9046    4.0666 Q=    0.4100 A=    0.0000 R=    0.0000 C=    0.0000
 XYZ=   10.0495    0.5971    1.1987 Q=   -0.8200 A=    0.0000 R=    0.0000 C=    0.0000
 XYZ=   10.0980    0.5585    2.1968 Q=    0.4100 A=    0.0000 R=    0.0000 C=    0.0000
 XYZ=    9.1488    0.9317    0.9214 Q=    0.4100 A=    0.0000 R=    0.0000 C=    0.0000
 XYZ=   -1.6213   -6.9034    5.8508 Q=   -0.8200 A=    0.0000 R=    0.0000 C=    0.0000
 XYZ=   -1.6166   -6.3367    6.6747 Q=    0.4100 A=    0.0000 R=    0.0000 C=    0.0000
 XYZ=   -2.5138   -7.3440    5.7543 Q=    0.4100 A=    0.0000 R=    0.0000 C=    0.0000
 XYZ=   -2.8691    2.9789   -9.3420 Q=   -0.8200 A=    0.0000 R=    0.0000 C=    0.0000
 XYZ=   -3.3942    2.2709   -8.8696 Q=    0.4100 A=    0.0000 R=    0.0000 C=    0.0000
 XYZ=   -2.3582    3.5177   -8.6721 Q=    0.4100 A=    0.0000 R=    0.0000 C=    0.0000
 XYZ=    2.2165    4.2787   -7.9974 Q=   -0.8200 A=    0.0000 R=    0.0000 C=    0.0000
 XYZ=    2.8263    4.9472   -7.5717 Q=    0.4100 A=    0.0000 R=    0.0000 C=    0.0000
 XYZ=    2.7200    3.4326   -8.1729 Q=    0.4100 A=    0.0000 R=    0.0000 C=    0.0000
 XYZ=    0.1937    9.6312    3.0917 Q=   -0.8200 A=    0.0000 R=    0.0000 C=    0.0000
 XYZ=   -0.7361    9.4037    2.8022 Q=    0.4100 A=    0.0000 R=    0.0000 C=    0.0000
 XYZ=    0.2988    9.4276    4.0651 Q=    0.4100 A=    0.0000 R=    0.0000 C=    0.0000
 XYZ=    0.5677    8.6831    5.2449 Q=   -0.8200 A=    0.0000 R=    0.0000 C=    0.0000
 XYZ=    1.2443    7.9517    5.1595 Q=    0.4100 A=    0.0000 R=    0.0000 C=    0.0000
 XYZ=   -0.1831    8.3760    5.8297 Q=    0.4100 A=    0.0000 R=    0.0000 C=    0.0000
 XYZ=    7.9277    5.1307   -2.5921 Q=   -0.8200 A=    0.0000 R=    0.0000 C=    0.0000
 XYZ=    8.6228    4.5251   -2.2046 Q=    0.4100 A=    0.0000 R=    0.0000 C=    0.0000
 XYZ=    8.0696    6.0608   -2.2531 Q=    0.4100 A=    0.0000 R=    0.0000 C=    0.0000
 XYZ=    4.0248    5.5841   -7.0825 Q=   -0.8200 A=    0.0000 R=    0.0000 C=    0.0000
 XYZ=    4.8434    5.4752   -6.5186 Q=    0.4100 A=    0.0000 R=    0.0000 C=    0.0000
 XYZ=    4.2863    5.9148   -7.9893 Q=    0.4100 A=    0.0000 R=    0.0000 C=    0.0000
 XYZ=   -6.8362   -5.1631    4.6220 Q=   -0.8200 A=    0.0000 R=    0.0000 C=    0.0000
 XYZ=   -7.5124   -5.4063    3.9266 Q=    0.4100 A=    0.0000 R=    0.0000 C=    0.0000
 XYZ=   -6.6069   -4.1933    4.5392 Q=    0.4100 A=    0.0000 R=    0.0000 C=    0.0000
 XYZ=   -2.0419    9.3209    2.2123 Q=   -0.8200 A=    0.0000 R=    0.0000 C=    0.0000
 XYZ=   -2.3376    9.0086    3.1151 Q=    0.4100 A=    0.0000 R=    0.0000 C=    0.0000
 XYZ=   -2.4046   10.2370    2.0413 Q=    0.4100 A=    0.0000 R=    0.0000 C=    0.0000
 XYZ=   -5.3594   -7.9571   -4.5617 Q=   -0.8200 A=    0.0000 R=    0.0000 C=    0.0000
 XYZ=   -5.4808   -7.0404   -4.1809 Q=    0.4100 A=    0.0000 R=    0.0000 C=    0.0000
 XYZ=   -6.2287   -8.2806   -4.9353 Q=    0.4100 A=    0.0000 R=    0.0000 C=    0.0000
 XYZ=    5.9522    2.3065    7.0389 Q=   -0.8200 A=    0.0000 R=    0.0000 C=    0.0000
 XYZ=    6.7788    2.7507    6.6931 Q=    0.4100 A=    0.0000 R=    0.0000 C=    0.0000
 XYZ=    5.6385    2.7805    7.8617 Q=    0.4100 A=    0.0000 R=    0.0000 C=    0.0000
 XYZ=    9.1971    3.3530    4.2008 Q=   -0.8200 A=    0.0000 R=    0.0000 C=    0.0000
 XYZ=    8.4801    2.8295    3.7404 Q=    0.4100 A=    0.0000 R=    0.0000 C=    0.0000
 XYZ=    9.9535    2.7439    4.4393 Q=    0.4100 A=    0.0000 R=    0.0000 C=    0.0000
 XYZ=    1.3209   11.2051   -0.7392 Q=   -0.8200 A=    0.0000 R=    0.0000 C=    0.0000
 XYZ=    2.1855   11.6629   -0.9463 Q=    0.4100 A=    0.0000 R=    0.0000 C=    0.0000
 XYZ=    1.2410   10.3771   -1.2942 Q=    0.4100 A=    0.0000 R=    0.0000 C=    0.0000
 XYZ=   -4.7812    8.1004   -1.0673 Q=   -0.8200 A=    0.0000 R=    0.0000 C=    0.0000
 XYZ=   -4.0921    8.6310   -1.5610 Q=    0.4100 A=    0.0000 R=    0.0000 C=    0.0000
 XYZ=   -5.3038    8.7078   -0.4690 Q=    0.4100 A=    0.0000 R=    0.0000 C=    0.0000
 XYZ=    2.9164    3.2128    9.2168 Q=   -0.8200 A=    0.0000 R=    0.0000 C=    0.0000
 XYZ=    3.9112    3.1109    9.2167 Q=    0.4100 A=    0.0000 R=    0.0000 C=    0.0000
 XYZ=    2.5950    3.3470    8.2794 Q=    0.4100 A=    0.0000 R=    0.0000 C=    0.0000
 XYZ=   -8.5534    4.7049   -1.2249 Q=   -0.8200 A=    0.0000 R=    0.0000 C=    0.0000
 XYZ=   -8.1087    5.0349   -2.0577 Q=    0.4100 A=    0.0000 R=    0.0000 C=    0.0000
 XYZ=   -8.0119    4.9746   -0.4286 Q=    0.4100 A=    0.0000 R=    0.0000 C=    0.0000
 XYZ=   -2.9937    5.8725    6.6641 Q=   -0.8200 A=    0.0000 R=    0.0000 C=    0.0000
 XYZ=   -3.1602    6.2433    5.7504 Q=    0.4100 A=    0.0000 R=    0.0000 C=    0.0000
 XYZ=   -2.1764    5.2967    6.6462 Q=    0.4100 A=    0.0000 R=    0.0000 C=    0.0000
 XYZ=    6.3382    5.4769    6.0736 Q=   -0.8200 A=    0.0000 R=    0.0000 C=    0.0000
 XYZ=    7.1452    6.0665    6.0400 Q=    0.4100 A=    0.0000 R=    0.0000 C=    0.0000
 XYZ=    6.5912    4.5497    5.7976 Q=    0.4100 A=    0.0000 R=    0.0000 C=    0.0000
 XYZ=   -5.7717   -4.9100   -6.4250 Q=   -0.8200 A=    0.0000 R=    0.0000 C=    0.0000
 XYZ=   -5.4832   -4.1788   -7.0432 Q=    0.4100 A=    0.0000 R=    0.0000 C=    0.0000
 XYZ=   -6.6695   -5.2491   -6.7061 Q=    0.4100 A=    0.0000 R=    0.0000 C=    0.0000
 XYZ=    0.2755    4.3833   -9.3782 Q=   -0.8200 A=    0.0000 R=    0.0000 C=    0.0000
 XYZ=   -0.5239    4.4703   -8.7837 Q=    0.4100 A=    0.0000 R=    0.0000 C=    0.0000
 XYZ=    1.0992    4.2940   -8.8181 Q=    0.4100 A=    0.0000 R=    0.0000 C=    0.0000
 XYZ=    9.3070   -0.4784   -2.3663 Q=   -0.8200 A=    0.0000 R=    0.0000 C=    0.0000
 XYZ=    9.0478    0.4427   -2.0758 Q=    0.4100 A=    0.0000 R=    0.0000 C=    0.0000
 XYZ=    9.6060   -1.0068   -1.5717 Q=    0.4100 A=    0.0000 R=    0.0000 C=    0.0000
 XYZ=   -2.7078    8.4811    4.1682 Q=   -0.8200 A=    0.0000 R=    0.0000 C=    0.0000
 XYZ=   -3.2994    7.6965    4.3540 Q=    0.4100 A=    0.0000 R=    0.0000 C=    0.0000
 XYZ=   -3.2582    9.3158    4.1465 Q=    0.4100 A=    0.0000 R=    0.0000 C=    0.0000
 XYZ=   -1.1571   -1.0839  -10.1162 Q=   -0.8200 A=    0.0000 R=    0.0000 C=    0.0000
 XYZ=   -1.0907   -2.0587  -10.3292 Q=    0.4100 A=    0.0000 R=    0.0000 C=    0.0000
 XYZ=   -1.7433   -0.9568   -9.3160 Q=    0.4100 A=    0.0000 R=    0.0000 C=    0.0000
 XYZ=   -6.5557   -7.9209    0.7133 Q=   -0.8200 A=    0.0000 R=    0.0000 C=    0.0000
 XYZ=   -7.0706   -7.0653    0.6590 Q=    0.4100 A=    0.0000 R=    0.0000 C=    0.0000
 XYZ=   -6.2974   -8.0946    1.6637 Q=    0.4100 A=    0.0000 R=    0.0000 C=    0.0000
 XYZ=   -4.4139   -6.7826   -6.5075 Q=   -0.8200 A=    0.0000 R=    0.0000 C=    0.0000
 XYZ=   -4.9223   -5.9278   -6.4027 Q=    0.4100 A=    0.0000 R=    0.0000 C=    0.0000
 XYZ=   -4.7198   -7.4390   -5.8179 Q=    0.4100 A=    0.0000 R=    0.0000 C=    0.0000
 XYZ=   -5.5570    3.6105   -8.0335 Q=   -0.8200 A=    0.0000 R=    0.0000 C=    0.0000
 XYZ=   -5.2542    4.3279   -8.6609 Q=    0.4100 A=    0.0000 R=    0.0000 C=    0.0000
 XYZ=   -5.1483    2.7383   -8.3025 Q=    0.4100 A=    0.0000 R=    0.0000 C=    0.0000
 XYZ=    9.5481    3.6845   -1.8194 Q=   -0.8200 A=    0.0000 R=    0.0000 C=    0.0000
 XYZ=    9.0526    2.8190   -1.7463 Q=    0.4100 A=    0.0000 R=    0.0000 C=    0.0000
 XYZ=    9.9096    3.9384   -0.9222 Q=    0.4100 A=    0.0000 R=    0.0000 C=    0.0000
 XYZ=   -9.6582    1.7647    1.7126 Q=   -0.8200 A=    0.0000 R=    0.0000 C=    0.0000
 XYZ=   -8.6714    1.8883    1.8175 Q=    0.4100 A=    0.0000 R=    0.0000 C=    0.0000
 XYZ=   -9.8349    1.0711    1.0142 Q=    0.4100 A=    0.0000 R=    0.0000 C=    0.0000
 XYZ=   -3.0690    9.3518   -4.5838 Q=   -0.8200 A=    0.0000 R=    0.0000 C=    0.0000
 XYZ=   -3.2312    9.4284   -3.6000 Q=    0.4100 A=    0.0000 R=    0.0000 C=    0.0000
 XYZ=   -2.8551    8.4023   -4.8133 Q=    0.4100 A=    0.0000 R=    0.0000 C=    0.0000
 XYZ=    7.4710    8.1474    0.2235 Q=   -0.8200 A=    0.0000 R=    0.0000 C=    0.0000
 XYZ=    7.9174    8.9589    0.6006 Q=    0.4100 A=    0.0000 R=    0.0000 C=    0.0000
 XYZ=    7.4652    7.4207    0.9106 Q=    0.4100 A=    0.0000 R=    0.0000 C=    0.0000
 XYZ=   -0.3170   -6.2753   -8.1393 Q=   -0.8200 A=    0.0000 R=    0.0000 C=    0.0000
 XYZ=    0.2167   -5.5830   -7.6535 Q=    0.4100 A=    0.0000 R=    0.0000 C=    0.0000
 XYZ=   -1.0184   -6.6440   -7.5293 Q=    0.4100 A=    0.0000 R=    0.0000 C=    0.0000
 XYZ=   -1.5920   -5.7380    7.9078 Q=   -0.8200 A=    0.0000 R=    0.0000 C=    0.0000
 XYZ=   -0.7372   -5.2709    8.1340 Q=    0.4100 A=    0.0000 R=    0.0000 C=    0.0000
 XYZ=   -2.3650   -5.1987    8.2418 Q=    0.4100 A=    0.0000 R=    0.0000 C=    0.0000
 XYZ=    7.5821   -4.7784   -2.9428 Q=   -0.8200 A=    0.0000 R=    0.0000 C=    0.0000
 XYZ=    6.6920   -4.7561   -3.3982 Q=    0.4100 A=    0.0000 R=    0.0000 C=    0.0000
 XYZ=    8.3085   -4.7644   -3.6300 Q=    0.4100 A=    0.0000 R=    0.0000 C=    0.0000
 XYZ=    3.4219    2.2599   -8.5634 Q=   -0.8200 A=    0.0000 R=    0.0000 C=    0.0000
 XYZ=    4.4213    2.2255   -8.5554 Q=    0.4100 A=    0.0000 R=    0.0000 C=    0.0000
 XYZ=    3.0838    1.9210   -9.4414 Q=    0.4100 A=    0.0000 R=    0.0000 C=    0.0000
 XYZ=    5.1163   -1.2704   -8.1597 Q=   -0.8200 A=    0.0000 R=    0.0000 C=    0.0000
 XYZ=    5.2516   -2.1242   -7.6569 Q=    0.4100 A=    0.0000 R=    0.0000 C=    0.0000
 XYZ=    4.3475   -0.7685   -7.7634 Q=    0.4100 A=    0.0000 R=    0.0000 C=    0.0000
 XYZ=   -3.8023   -7.6794    5.8716 Q=   -0.8200 A=    0.0000 R=    0.0000 C=    0.0000
 XYZ=   -4.2280   -7.0697    5.2029 Q=    0.4100 A=    0.0000 R=    0.0000 C=    0.0000
 XYZ=   -3.8376   -7.2571    6.7774 Q=    0.4100 A=    0.0000 R=    0.0000 C=    0.0000
 XYZ=   -0.2471   -2.7354    9.6626 Q=   -0.8200 A=    0.0000 R=    0.0000 C=    0.0000
 XYZ=    0.1711   -3.3737    9.0162 Q=    0.4100 A=    0.0000 R=    0.0000 C=    0.0000
 XYZ=   -0.9970   -3.1907   10.1426 Q=    0.4100 A=    0.0000 R=    0.0000 C=    0.0000
 XYZ=    9.1040   -4.0472    1.1879 Q=   -0.8200 A=    0.0000 R=    0.0000 C=    0.0000
 XYZ=    8.2654   -3.9337    1.7208 Q=    0.4100 A=    0.0000 R=    0.0000 C=    0.0000
 XYZ=    8.8923   -3.9725    0.2134 Q=    0.4100 A=    0.0000 R=    0.0000 C=    0.0000
 XYZ=   -2.5276   -9.9122    2.5598 Q=   -0.8200 A=    0.0000 R=    0.0000 C=    0.0000
 XYZ=   -1.7758   -9.5029    3.0769 Q=    0.4100 A=    0.0000 R=    0.0000 C=    0.0000
 XYZ=   -2.6542   -9.4118    1.7033 Q=    0.4100 A=    0.0000 R=    0.0000 C=    0.0000
 XYZ=    7.6891    3.3808    6.0678 Q=   -0.8200 A=    0.0000 R=    0.0000 C=    0.0000
 XYZ=    8.2883    3.2799    5.2736 Q=    0.4100 A=    0.0000 R=    0.0000 C=    0.0000
 XYZ=    8.2382    3.6017    6.8738 Q=    0.4100 A=    0.0000 R=    0.0000 C=    0.0000
 XYZ=    7.1263    0.3517    7.8264 Q=   -0.8200 A=    0.0000 R=    0.0000 C=    0.0000
 XYZ=    6.6615    1.1748    7.4998 Q=    0.4100 A=    0.0000 R=    0.0000 C=    0.0000
 XYZ=    8.0478    0.5891    8.1335 Q=    0.4100 A=    0.0000 R=    0.0000 C=    0.0000
 XYZ=   -9.7206    2.8372   -2.1018 Q=   -0.8200 A=    0.0000 R=    0.0000 C=    0.0000
 XYZ=  -10.7108    2.9554   -2.0271 Q=    0.4100 A=    0.0000 R=    0.0000 C=    0.0000
 XYZ=   -9.2589    3.5645   -1.5940 Q=    0.4100 A=    0.0000 R=    0.0000 C=    0.0000
 XYZ=   -8.7945   -5.6811    2.7901 Q=   -0.8200 A=    0.0000 R=    0.0000 C=    0.0000
 XYZ=   -8.4029   -5.6792    1.8700 Q=    0.4100 A=    0.0000 R=    0.0000 C=    0.0000
 XYZ=   -9.3652   -6.4938    2.9078 Q=    0.4100 A=    0.0000 R=    0.0000 C=    0.0000
 XYZ=   -6.9927    6.5095    2.3859 Q=   -0.8200 A=    0.0000 R=    0.0000 C=    0.0000
 XYZ=   -7.5265    6.3611    3.2184 Q=    0.4100 A=    0.0000 R=    0.0000 C=    0.0000
 XYZ=   -7.4271    6.0322    1.6219 Q=    0.4100 A=    0.0000 R=    0.0000 C=    0.0000
 XYZ=    0.3730    9.8488   -4.9140 Q=   -0.8200 A=    0.0000 R=    0.0000 C=    0.0000
 XYZ=   -0.5257   10.2145   -5.1562 Q=    0.4100 A=    0.0000 R=    0.0000 C=    0.0000
 XYZ=    0.9806    9.9060   -5.7062 Q=    0.4100 A=    0.0000 R=    0.0000 C=    0.0000
 XYZ=   -6.1691   -8.2825    3.0166 Q=   -0.8200 A=    0.0000 R=    0.0000 C=    0.0000
 XYZ=   -5.6991   -7.5497    3.5086 Q=    0.4100 A=    0.0000 R=    0.0000 C=    0.0000
 XYZ=   -5.5727   -9.0835    2.9627 Q=    0.4100 A=    0.0000 R=    0.0000 C=    0.0000
 XYZ=    8.1830    7.4945   -2.1090 Q=   -0.8200 A=    0.0000 R=    0.0000 C=    0.0000
 XYZ=    7.3721    7.8253   -2.5916 Q=    0.4100 A=    0.0000 R=    0.0000 C=    0.0000
 XYZ=    8.0963    7.6973   -1.1336 Q=    0.4100 A=    0.0000 R=    0.0000 C=    0.0000
 XYZ=    5.5385   -3.5741   -6.7347 Q=   -0.8200 A=    0.0000 R=    0.0000 C=    0.0000
 XYZ=    5.6063   -3.0867   -5.8641 Q=    0.4100 A=    0.0000 R=    0.0000 C=    0.0000
 XYZ=    6.4530   -3.8396   -7.0400 Q=    0.4100 A=    0.0000 R=    0.0000 C=    0.0000
 XYZ=   -2.2188   -7.4997   -7.2674 Q=   -0.8200 A=    0.0000 R=    0.0000 C=    0.0000
 XYZ=   -2.4348   -7.7255   -8.2173 Q=    0.4100 A=    0.0000 R=    0.0000 C=    0.0000
 XYZ=   -3.0674   -7.3665   -6.7553 Q=    0.4100 A=    0.0000 R=    0.0000 C=    0.0000
 XYZ=   -5.6198   -3.4571   -8.1617 Q=   -0.8200 A=    0.0000 R=    0.0000 C=    0.0000
 XYZ=   -5.1498   -3.9217   -8.9123 Q=    0.4100 A=    0.0000 R=    0.0000 C=    0.0000
 XYZ=   -6.2393   -2.7658   -8.5336 Q=    0.4100 A=    0.0000 R=    0.0000 C=    0.0000
 XYZ=   -4.7439   -0.6222   -9.2886 Q=   -0.8200 A=    0.0000 R=    0.0000 C=    0.0000
 XYZ=   -5.4767   -1.2991   -9.2186 Q=    0.4100 A=    0.0000 R=    0.0000 C=    0.0000
 XYZ=   -4.5554   -0.4336  -10.2524 Q=    0.4100 A=    0.0000 R=    0.0000 C=    0.0000
 XYZ=   -9.1982    3.0128   -4.4341 Q=   -0.8200 A=    0.0000 R=    0.0000 C=    0.0000
 XYZ=   -9.4630    2.8393   -3.4855 Q=    0.4100 A=    0.0000 R=    0.0000 C=    0.0000
 XYZ=   -9.8832    2.6208   -5.0483 Q=    0.4100 A=    0.0000 R=    0.0000 C=    0.0000
 XYZ=    1.4665   11.7043    1.7065 Q=   -0.8200 A=    0.0000 R=    0.0000 C=    0.0000
 XYZ=    1.0590   10.9953    2.2822 Q=    0.4100 A=    0.0000 R=    0.0000 C=    0.0000
 XYZ=    1.5803   11.3540    0.7768 Q=    0.4100 A=    0.0000 R=    0.0000 C=    0.0000
 XYZ=    1.7747    5.2873    9.0064 Q=   -0.8200 A=    0.0000 R=    0.0000 C=    0.0000
 XYZ=    1.0269    5.3919    9.6621 Q=    0.4100 A=    0.0000 R=    0.0000 C=    0.0000
 XYZ=    2.0802    4.3351    8.9984 Q=    0.4100 A=    0.0000 R=    0.0000 C=    0.0000
 XYZ=    8.5677   -6.2421    1.9541 Q=   -0.8200 A=    0.0000 R=    0.0000 C=    0.0000
 XYZ=    8.9574   -5.3997    1.5819 Q=    0.4100 A=    0.0000 R=    0.0000 C=    0.0000
 XYZ=    7.5720   -6.1590    1.9948 Q=    0.4100 A=    0.0000 R=    0.0000 C=    0.0000
 XYZ=    9.4841    5.0182   -4.5233 Q=   -0.8200 A=    0.0000 R=    0.0000 C=    0.0000
 XYZ=    8.9189    4.8497   -3.7157 Q=    0.4100 A=    0.0000 R=    0.0000 C=    0.0000
 XYZ=   10.4032    5.2884   -4.2365 Q=    0.4100 A=    0.0000 R=    0.0000 C=    0.0000
 XYZ=    7.0595    3.5370   -6.9013 Q=   -0.8200 A=    0.0000 R=    0.0000 C=    0.0000
 XYZ=    7.2249    4.1523   -7.6721 Q=    0.4100 A=    0.0000 R=    0.0000 C=    0.0000
 XYZ=    7.9226    3.3519   -6.4315 Q=    0.4100 A=    0.0000 R=    0.0000 C=    0.0000
 XYZ=    8.7923   -3.9791   -1.2572 Q=   -0.8200 A=    0.0000 R=    0.0000 C=    0.0000
 XYZ=    9.7310   -4.2747   -1.4347 Q=    0.4100 A=    0.0000 R=    0.0000 C=    0.0000
 XYZ=    8.1794   -4.3942   -1.9295 Q=    0.4100 A=    0.0000 R=    0.0000 C=    0.0000
 XYZ=    5.8048    2.0442   -8.3879 Q=   -0.8200 A=    0.0000 R=    0.0000 C=    0.0000
 XYZ=    6.2310    2.6339   -7.7019 Q=    0.4100 A=    0.0000 R=    0.0000 C=    0.0000
 XYZ=    6.3836    1.2440   -8.5455 Q=    0.4100 A=    0.0000 R=    0.0000 C=    0.0000
 XYZ=   -1.4726    8.3407    6.4143 Q=   -0.8200 A=    0.0000 R=    0.0000 C=    0.0000
 XYZ=   -2.0124    8.5830    5.6081 Q=    0.4100 A=    0.0000 R=    0.0000 C=    0.0000
 XYZ=   -2.0798    7.9986    7.1315 Q=    0.4100 A=    0.0000 R=    0.0000 C=    0.0000
 XYZ=   -1.5151  -10.3145   -0.7551 Q=   -0.8200 A=    0.0000 R=    0.0000 C=    0.0000
 XYZ=   -1.0848  -10.9647   -0.1289 Q=    0.4100 A=    0.0000 R=    0.0000 C=    0.0000
 XYZ=   -1.9838  -10.8139   -1.4838 Q=    0.4100 A=    0.0000 R=    0.0000 C=    0.0000
 XYZ=    8.5925    7.2077    3.6481 Q=   -0.8200 A=    0.0000 R=    0.0000 C=    0.0000
 XYZ=    9.3433    6.5808    3.8565 Q=    0.4100 A=    0.0000 R=    0.0000 C=    0.0000
 XYZ=    8.1063    6.8869    2.8352 Q=    0.4100 A=    0.0000 R=    0.0000 C=    0.0000
 XYZ=   -5.1273   -9.6401   -2.8906 Q=   -0.8200 A=    0.0000 R=    0.0000 C=    0.0000
 XYZ=   -5.9181  -10.2479   -2.9634 Q=    0.4100 A=    0.0000 R=    0.0000 C=    0.0000
 XYZ=   -5.1381   -8.9870   -3.6478 Q=    0.4100 A=    0.0000 R=    0.0000 C=    0.0000
 XYZ=   -1.9093    5.2899    9.2611 Q=   -0.8200 A=    0.0000 R=    0.0000 C=    0.0000
 XYZ=   -2.3231    6.1927    9.1437 Q=    0.4100 A=    0.0000 R=    0.0000 C=    0.0000
 XYZ=   -1.4647    5.0137    8.4089 Q=    0.4100 A=    0.0000 R=    0.0000 C=    0.0000
 XYZ=    7.7876    0.7973   -6.2134 Q=   -0.8200 A=    0.0000 R=    0.0000 C=    0.0000
 XYZ=    8.2552    1.6539   -5.9949 Q=    0.4100 A=    0.0000 R=    0.0000 C=    0.0000
 XYZ=    8.4439    0.0432   -6.1868 Q=    0.4100 A=    0.0000 R=    0.0000 C=    0.0000
 XYZ=    5.3371   -0.6142    8.7948 Q=   -0.8200 A=    0.0000 R=    0.0000 C=    0.0000
 XYZ=    6.1667   -0.2033    8.4166 Q=    0.4100 A=    0.0000 R=    0.0000 C=    0.0000
 XYZ=    5.5775   -1.1942    9.5732 Q=    0.4100 A=    0.0000 R=    0.0000 C=    0.0000
 XYZ=   -7.6621    1.2839    6.7356 Q=   -0.8200 A=    0.0000 R=    0.0000 C=    0.0000
 XYZ=   -7.3533    0.5185    6.1710 Q=    0.4100 A=    0.0000 R=    0.0000 C=    0.0000
 XYZ=   -7.1105    2.0926    6.5314 Q=    0.4100 A=    0.0000 R=    0.0000 C=    0.0000
 XYZ=    5.4819    5.8482    8.2561 Q=   -0.8200 A=    0.0000 R=    0.0000 C=    0.0000
 XYZ=    6.2786    6.1500    8.7797 Q=    0.4100 A=    0.0000 R=    0.0000 C=    0.0000
 XYZ=    5.7533    5.6678    7.3106 Q=    0.4100 A=    0.0000 R=    0.0000 C=    0.0000
 XYZ=   10.3675    4.3371    0.1369 Q=   -0.8200 A=    0.0000 R=    0.0000 C=    0.0000
 XYZ=    9.9135    4.3883    1.0264 Q=    0.4100 A=    0.0000 R=    0.0000 C=    0.0000
 XYZ=   11.1464    4.9642    0.1236 Q=    0.4100 A=    0.0000 R=    0.0000 C=    0.0000
 XYZ=    7.1408   -6.8773   -1.6907 Q=   -0.8200 A=    0.0000 R=    0.0000 C=    0.0000
 XYZ=    7.7207   -7.2298   -0.9563 Q=    0.4100 A=    0.0000 R=    0.0000 C=    0.0000
 XYZ=    7.5596   -6.0577   -2.0818 Q=    0.4100 A=    0.0000 R=    0.0000 C=    0.0000
 XYZ=   -7.8330    4.0000   -8.3055 Q=   -0.8200 A=    0.0000 R=    0.0000 C=    0.0000
 XYZ=   -7.7496    4.4874   -9.1747 Q=    0.4100 A=    0.0000 R=    0.0000 C=    0.0000
 XYZ=   -6.9279    3.7011   -8.0028 Q=    0.4100 A=    0.0000 R=    0.0000 C=    0.0000
 XYZ=  -11.3802   -0.1066   -2.6846 Q=   -0.8200 A=    0.0000 R=    0.0000 C=    0.0000
 XYZ=  -11.8255    0.7775   -2.5431 Q=    0.4100 A=    0.0000 R=    0.0000 C=    0.0000
 XYZ=  -10.4632   -0.0854   -2.2863 Q=    0.4100 A=    0.0000 R=    0.0000 C=    0.0000
 XYZ=   -3.3798   -4.3850    8.7803 Q=   -0.8200 A=    0.0000 R=    0.0000 C=    0.0000
 XYZ=   -3.9789   -5.1855    8.7936 Q=    0.4100 A=    0.0000 R=    0.0000 C=    0.0000
 XYZ=   -3.0324   -4.2134    9.7023 Q=    0.4100 A=    0.0000 R=    0.0000 C=    0.0000
 XYZ=   10.8385   -0.8606   -0.4973 Q=   -0.8200 A=    0.0000 R=    0.0000 C=    0.0000
 XYZ=   10.8891   -1.7434   -0.0302 Q=    0.4100 A=    0.0000 R=    0.0000 C=    0.0000
 XYZ=   10.5822   -0.1507    0.1588 Q=    0.4100 A=    0.0000 R=    0.0000 C=    0.0000
 XYZ=    5.2312    3.5763    8.8349 Q=   -0.8200 A=    0.0000 R=    0.0000 C=    0.0000
 XYZ=    5.8557    3.5397    9.6151 Q=    0.4100 A=    0.0000 R=    0.0000 C=    0.0000
 XYZ=    5.2968    4.4732    8.3974 Q=    0.4100 A=    0.0000 R=    0.0000 C=    0.0000
 XYZ=    1.0040   -0.4236  -10.7751 Q=   -0.8200 A=    0.0000 R=    0.0000 C=    0.0000
 XYZ=    1.6491   -1.1862  -10.8237 Q=    0.4100 A=    0.0000 R=    0.0000 C=    0.0000
 XYZ=    0.1113   -0.7609  -10.4762 Q=    0.4100 A=    0.0000 R=    0.0000 C=    0.0000
 XYZ=   -9.6511    4.0847    1.9010 Q=   -0.8200 A=    0.0000 R=    0.0000 C=    0.0000
 XYZ=  -10.0617    4.6305    1.1706 Q=    0.4100 A=    0.0000 R=    0.0000 C=    0.0000
 XYZ=   -9.7265    3.1137    1.6741 Q=    0.4100 A=    0.0000 R=    0.0000 C=    0.0000
 XYZ=   -8.7733    4.9867   -6.3267 Q=   -0.8200 A=    0.0000 R=    0.0000 C=    0.0000
 XYZ=   -8.3540    4.5686   -7.1326 Q=    0.4100 A=    0.0000 R=    0.0000 C=    0.0000
 XYZ=   -8.8693    4.2995   -5.6065 Q=    0.4100 A=    0.0000 R=    0.0000 C=    0.0000
 XYZ=   -2.8031    2.7696  -11.5748 Q=   -0.8200 A=    0.0000 R=    0.0000 C=    0.0000
 XYZ=   -2.8304    2.8812  -10.5814 Q=    0.4100 A=    0.0000 R=    0.0000 C=    0.0000
 XYZ=   -2.6383    1.8088  -11.7978 Q=    0.4100 A=    0.0000 R=    0.0000 C=    0.0000
 XYZ=   -7.7919    5.5998    4.6546 Q=   -0.8200 A=    0.0000 R=    0.0000 C=    0.0000
 XYZ=   -7.1845    4.8322    4.8593 Q=    0.4100 A=    0.0000 R=    0.0000 C=    0.0000
 XYZ=   -7.3640    6.4525    4.9543 Q=    0.4100 A=    0.0000 R=    0.0000 C=    0.0000
 XYZ=   -1.6091   10.9476   -5.4513 Q=   -0.8200 A=    0.0000 R=    0.0000 C=    0.0000
 XYZ=   -1.8312   11.8630   -5.1156 Q=    0.4100 A=    0.0000 R=    0.0000 C=    0.0000
 XYZ=   -2.2071   10.2772   -5.0119 Q=    0.4100 A=    0.0000 R=    0.0000 C=    0.0000
 XYZ=    2.4495    1.4989  -10.6675 Q=   -0.8200 A=    0.0000 R=    0.0000 C=    0.0000
 XYZ=    1.9346    2.2537  -11.0741 Q=    0.4100 A=    0.0000 R=    0.0000 C=    0.0000
 XYZ=    1.8452    0.7118  -10.5437 Q=    0.4100 A=    0.0000 R=    0.0000 C=    0.0000
 XYZ=   -6.5383    8.7680    2.2880 Q=   -0.8200 A=    0.0000 R=    0.0000 C=    0.0000
 XYZ=   -6.6982    7.7910    2.4297 Q=    0.4100 A=    0.0000 R=    0.0000 C=    0.0000
 XYZ=   -6.7700    9.2680    3.1225 Q=    0.4100 A=    0.0000 R=    0.0000 C=    0.0000
 XYZ=    1.0835    3.3799  -11.3176 Q=   -0.8200 A=    0.0000 R=    0.0000 C=    0.0000
 XYZ=    0.6044    3.6896  -10.4963 Q=    0.4100 A=    0.0000 R=    0.0000 C=    0.0000
 XYZ=    1.6921    4.1042  -11.6416 Q=    0.4100 A=    0.0000 R=    0.0000 C=    0.0000
 XYZ=  -11.7008   -1.5856    0.9922 Q=   -0.8200 A=    0.0000 R=    0.0000 C=    0.0000
 XYZ=  -10.8951   -1.0195    0.8180 Q=    0.4100 A=    0.0000 R=    0.0000 C=    0.0000
 XYZ=  -11.4112   -2.4901    1.3054 Q=    0.4100 A=    0.0000 R=    0.0000 C=    0.0000
 XYZ=   -4.8516    5.1813    7.9512 Q=   -0.8200 A=    0.0000 R=    0.0000 C=    0.0000
 XYZ=   -5.3428    6.0459    7.8449 Q=    0.4100 A=    0.0000 R=    0.0000 C=    0.0000
 XYZ=   -3.9546    5.2517    7.5149 Q=    0.4100 A=    0.0000 R=    0.0000 C=    0.0000
 XYZ=    4.0971    0.3936   10.6647 Q=   -0.8200 A=    0.0000 R=    0.0000 C=    0.0000
 XYZ=    4.4017    0.0908    9.7616 Q=    0.4100 A=    0.0000 R=    0.0000 C=    0.0000
 XYZ=    4.8892    0.6747   11.2066 Q=    0.4100 A=    0.0000 R=    0.0000 C=    0.0000
 XYZ=   -0.4073   -7.2321    9.3508 Q=   -0.8200 A=    0.0000 R=    0.0000 C=    0.0000
 XYZ=   -0.8600   -6.8551    8.5427 Q=    0.4100 A=    0.0000 R=    0.0000 C=    0.0000
 XYZ=    0.4910   -6.8061    9.4587 Q=    0.4100 A=    0.0000 R=    0.0000 C=    0.0000
 XYZ=   -4.0628   10.9386   -0.4043 Q=   -0.8200 A=    0.0000 R=    0.0000 C=    0.0000
 XYZ=   -4.4888   11.7413   -0.8218 Q=    0.4100 A=    0.0000 R=    0.0000 C=    0.0000
 XYZ=   -4.7704   10.2769   -0.1563 Q=    0.4100 A=    0.0000 R=    0.0000 C=    0.0000
 XYZ=   -5.8093    3.2251    6.9558 Q=   -0.8200 A=    0.0000 R=    0.0000 C=    0.0000
 XYZ=   -6.0623    2.6239    7.7138 Q=    0.4100 A=    0.0000 R=    0.0000 C=    0.0000
 XYZ=   -5.3680    4.0472    7.3155 Q=    0.4100 A=    0.0000 R=    0.0000 C=    0.0000
 XYZ=   -3.0491    6.2302   -9.2869 Q=   -0.8200 A=    0.0000 R=    0.0000 C=    0.0000
 XYZ=   -2.9986    6.9867   -9.9389 Q=    0.4100 A=    0.0000 R=    0.0000 C=    0.0000
 XYZ=   -3.9583    5.8158   -9.3270 Q=    0.4100 A=    0.0000 R=    0.0000 C=    0.0000
 XYZ=   -4.7969   -6.9558   -8.8015 Q=   -0.8200 A=    0.0000 R=    0.0000 C=    0.0000
 XYZ=   -4.1633   -7.5360   -9.3132 Q=    0.4100 A=    0.0000 R=    0.0000 C=    0.0000
 XYZ=   -4.4838   -6.8738   -7.8554 Q=    0.4100 A=    0.0000 R=    0.0000 C=    0.0000
 XYZ=   -2.8238   11.4959    1.5597 Q=   -0.8200 A=    0.0000 R=    0.0000 C=    0.0000
 XYZ=   -3.5976   11.9199    2.0304 Q=    0.4100 A=    0.0000 R=    0.0000 C=    0.0000
 XYZ=   -3.1086   11.2039    0.6467 Q=    0.4100 A=    0.0000 R=    0.0000 C=    0.0000
 XYZ=   -9.9770   -3.8184    3.9491 Q=   -0.8200 A=    0.0000 R=    0.0000 C=    0.0000
 XYZ=   -9.4960   -4.6065    3.5650 Q=    0.4100 A=    0.0000 R=    0.0000 C=    0.0000
 XYZ=  -10.4781   -4.1002    4.7673 Q=    0.4100 A=    0.0000 R=    0.0000 C=    0.0000
 XYZ=   -3.3382  -11.0759   -2.3573 Q=   -0.8200 A=    0.0000 R=    0.0000 C=    0.0000
 XYZ=   -2.9401  -11.5619   -3.1352 Q=    0.4100 A=    0.0000 R=    0.0000 C=    0.0000
 XYZ=   -3.9817  -10.3861   -2.6892 Q=    0.4100 A=    0.0000 R=    0.0000 C=    0.0000
 XYZ=   -6.8531   -5.8529    7.0865 Q=   -0.8200 A=    0.0000 R=    0.0000 C=    0.0000
 XYZ=   -6.7691   -5.8459    6.0900 Q=    0.4100 A=    0.0000 R=    0.0000 C=    0.0000
 XYZ=   -6.5433   -4.9757    7.4533 Q=    0.4100 A=    0.0000 R=    0.0000 C=    0.0000
 XYZ=    0.9790   10.7262    6.4005 Q=   -0.8200 A=    0.0000 R=    0.0000 C=    0.0000
 XYZ=    0.8341    9.8361    5.9684 Q=    0.4100 A=    0.0000 R=    0.0000 C=    0.0000
 XYZ=    1.6872   11.2270    5.9028 Q=    0.4100 A=    0.0000 R=    0.0000 C=    0.0000
 XYZ=    7.0358   -0.0467   -8.3176 Q=   -0.8200 A=    0.0000 R=    0.0000 C=    0.0000
 XYZ=    7.3462    0.2365   -7.4101 Q=    0.4100 A=    0.0000 R=    0.0000 C=    0.0000
 XYZ=    6.1257   -0.4550   -8.2461 Q=    0.4100 A=    0.0000 R=    0.0000 C=    0.0000
 XYZ=    9.1254    3.0266   -5.7192 Q=   -0.8200 A=    0.0000 R=    0.0000 C=    0.0000
 XYZ=    9.3151    3.8444   -5.1759 Q=    0.4100 A=    0.0000 R=    0.0000 C=    0.0000
 XYZ=    9.7787    2.3083   -5.4796 Q=    0.4100 A=    0.0000 R=    0.0000 C=    0.0000
 XYZ=   11.6746    2.3671    0.4587 Q=   -0.8200 A=    0.0000 R=    0.0000 C=    0.0000
 XYZ=   11.1140    1.5669    0.6720 Q=    0.4100 A=    0.0000 R=    0.0000 C=    0.0000
 XYZ=   11.0936    3.1800    0.4188 Q=    0.4100 A=    0.0000 R=    0.0000 C=    0.0000
 XYZ=   -2.3480    0.2843  -11.8014 Q=   -0.8200 A=    0.0000 R=    0.0000 C=    0.0000
 XYZ=   -1.8584   -0.1618  -11.0522 Q=    0.4100 A=    0.0000 R=    0.0000 C=    0.0000
 XYZ=   -3.2969   -0.0311  -11.8139 Q=    0.4100 A=    0.0000 R=    0.0000 C=    0.0000
 XYZ=   -1.1356   -9.8323   -7.0211 Q=   -0.8200 A=    0.0000 R=    0.0000 C=    0.0000
 XYZ=   -1.5385   -8.9483   -6.7840 Q=    0.4100 A=    0.0000 R=    0.0000 C=    0.0000
 XYZ=   -1.4980  -10.1384   -7.9015 Q=    0.4100 A=    0.0000 R=    0.0000 C=    0.0000
 XYZ=   -4.7113  -10.1798    3.3561 Q=   -0.8200 A=    0.0000 R=    0.0000 C=    0.0000
 XYZ=   -5.0925  -11.0563    3.0620 Q=    0.4100 A=    0.0000 R=    0.0000 C=    0.0000
 XYZ=   -3.7657  -10.1046    3.0395 Q=    0.4100 A=    0.0000 R=    0.0000 C=    0.0000
 XYZ=   -8.7122   -8.9883   -0.3569 Q=   -0.8200 A=    0.0000 R=    0.0000 C=    0.0000
 XYZ=   -9.3225   -8.2105   -0.5073 Q=    0.4100 A=    0.0000 R=    0.0000 C=    0.0000
 XYZ=   -7.8704   -8.6718    0.0803 Q=    0.4100 A=    0.0000 R=    0.0000 C=    0.0000
 XYZ=   -5.9306    9.7070    0.3334 Q=   -0.8200 A=    0.0000 R=    0.0000 C=    0.0000
 XYZ=   -6.6989   10.2542    0.0012 Q=    0.4100 A=    0.0000 R=    0.0000 C=    0.0000
 XYZ=   -6.2265    9.1564    1.1140 Q=    0.4100 A=    0.0000 R=    0.0000 C=    0.0000
 XYZ=   -0.3046    5.8908  -11.0900 Q=   -0.8200 A=    0.0000 R=    0.0000 C=    0.0000
 XYZ=   -0.9649    5.3965  -11.6555 Q=    0.4100 A=    0.0000 R=    0.0000 C=    0.0000
 XYZ=   -0.1053    5.3580  -10.2676 Q=    0.4100 A=    0.0000 R=    0.0000 C=    0.0000
 XYZ=   11.0750   -2.9740    0.8716 Q=   -0.8200 A=    0.0000 R=    0.0000 C=    0.0000
 XYZ=   10.2144   -3.3971    1.1551 Q=    0.4100 A=    0.0000 R=    0.0000 C=    0.0000
 XYZ=   11.6371   -3.6495    0.3943 Q=    0.4100 A=    0.0000 R=    0.0000 C=    0.0000
 XYZ=    8.2254    6.3540   -6.2070 Q=   -0.8200 A=    0.0000 R=    0.0000 C=    0.0000
 XYZ=    8.7111    5.8277   -5.5090 Q=    0.4100 A=    0.0000 R=    0.0000 C=    0.0000
 XYZ=    8.1047    5.7912   -7.0248 Q=    0.4100 A=    0.0000 R=    0.0000 C=    0.0000
 XYZ=   11.1905   -0.4026   -3.7750 Q=   -0.8200 A=    0.0000 R=    0.0000 C=    0.0000
 XYZ=   10.3894   -0.4169   -3.1765 Q=    0.4100 A=    0.0000 R=    0.0000 C=    0.0000
 XYZ=   12.0217   -0.4378   -3.2201 Q=    0.4100 A=    0.0000 R=    0.0000 C=    0.0000
 XYZ=   -0.0615   13.2620   -0.7791 Q=   -0.8200 A=    0.0000 R=    0.0000 C=    0.0000
 XYZ=    0.4449   12.4010   -0.7323 Q=    0.4100 A=    0.0000 R=    0.0000 C=    0.0000
 XYZ=   -0.8364   13.2277   -0.1480 Q=    0.4100 A=    0.0000 R=    0.0000 C=    0.0000
 XYZ=   -2.9045    7.5584    8.3116 Q=   -0.8200 A=    0.0000 R=    0.0000 C=    0.0000
 XYZ=   -3.1115    6.9060    7.5825 Q=    0.4100 A=    0.0000 R=    0.0000 C=    0.0000
 XYZ=   -3.6912    7.6342    8.9242 Q=    0.4100 A=    0.0000 R=    0.0000 C=    0.0000
 XYZ=    1.9227    2.4177   11.3205 Q=   -0.8200 A=    0.0000 R=    0.0000 C=    0.0000
 XYZ=    2.4592    2.5791   10.4921 Q=    0.4100 A=    0.0000 R=    0.0000 C=    0.0000
 XYZ=    2.1658    1.5279   11.7069 Q=    0.4100 A=    0.0000 R=    0.0000 C=    0.0000
 XYZ=    0.6968   -1.5457   11.4770 Q=   -0.8200 A=    0.0000 R=    0.0000 C=    0.0000
 XYZ=    0.2830   -2.0220   10.7012 Q=    0.4100 A=    0.0000 R=    0.0000 C=    0.0000
 XYZ=    0.0601   -0.8566   11.8232 Q=    0.4100 A=    0.0000 R=    0.0000 C=    0.0000
 XYZ=    1.8396   -7.4968   -8.7656 Q=   -0.8200 A=    0.0000 R=    0.0000 C=    0.0000
 XYZ=    0.9890   -7.0377   -8.5092 Q=    0.4100 A=    0.0000 R=    0.0000 C=    0.0000
 XYZ=    2.5366   -7.3195   -8.0708 Q=    0.4100 A=    0.0000 R=    0.0000 C=    0.0000
 XYZ=  -11.1361   -3.5859    1.9935 Q=   -0.8200 A=    0.0000 R=    0.0000 C=    0.0000
 XYZ=  -10.5786   -3.5854    2.8238 Q=    0.4100 A=    0.0000 R=    0.0000 C=    0.0000
 XYZ=  -11.0554   -4.4726    1.5384 Q=    0.4100 A=    0.0000 R=    0.0000 C=    0.0000
 XYZ=    4.7692   -5.2234   -8.3629 Q=   -0.8200 A=    0.0000 R=    0.0000 C=    0.0000
 XYZ=    5.5099   -5.3320   -9.0260 Q=    0.4100 A=    0.0000 R=    0.0000 C=    0.0000
 XYZ=    5.0398   -4.5583   -7.6669 Q=    0.4100 A=    0.0000 R=    0.0000 C=    0.0000
 XYZ=    3.4476   12.2397   -0.7872 Q=   -0.8200 A=    0.0000 R=    0.0000 C=    0.0000
 XYZ=    3.5456   12.5022    0.1728 Q=    0.4100 A=    0.0000 R=    0.0000 C=    0.0000
 XYZ=    4.3532   12.1333   -1.1978 Q=    0.4100 A=    0.0000 R=    0.0000 C=    0.0000
 XYZ=   11.5730    3.2391   -3.2244 Q=   -0.8200 A=    0.0000 R=    0.0000 C=    0.0000
 XYZ=   10.7326    3.4363   -2.7195 Q=    0.4100 A=    0.0000 R=    0.0000 C=    0.0000
 XYZ=   12.2155    2.7584   -2.6275 Q=    0.4100 A=    0.0000 R=    0.0000 C=    0.0000
 XYZ=   -6.7419   -1.8072   -9.2500 Q=   -0.8200 A=    0.0000 R=    0.0000 C=    0.0000
 XYZ=   -7.5937   -1.2856   -9.2997 Q=    0.4100 A=    0.0000 R=    0.0000 C=    0.0000
 XYZ=   -6.6732   -2.4097  -10.0453 Q=    0.4100 A=    0.0000 R=    0.0000 C=    0.0000
 XYZ=   10.5276    5.3654    4.4924 Q=   -0.8200 A=    0.0000 R=    0.0000 C=    0.0000
 XYZ=   10.1878    4.4303    4.3914 Q=    0.4100 A=    0.0000 R=    0.0000 C=    0.0000
 XYZ=   10.6494    5.5727    5.4631 Q=    0.4100 A=    0.0000 R=    0.0000 C=    0.0000
 XYZ=   -4.6678   -6.6579    7.9517 Q=   -0.8200 A=    0.0000 R=    0.0000 C=    0.0000
 XYZ=   -4.6747   -7.1134    8.8419 Q=    0.4100 A=    0.0000 R=    0.0000 C=    0.0000
 XYZ=   -5.6080   -6.5277    7.6366 Q=    0.4100 A=    0.0000 R=    0.0000 C=    0.0000
 XYZ=    8.1584    6.7373    6.0725 Q=   -0.8200 A=    0.0000 R=    0.0000 C=    0.0000
 XYZ=    8.2283    7.0963    5.1418 Q=    0.4100 A=    0.0000 R=    0.0000 C=    0.0000
 XYZ=    8.3784    7.4613    6.7264 Q=    0.4100 A=    0.0000 R=    0.0000 C=    0.0000
 XYZ=    3.7655    6.2642    9.9130 Q=   -0.8200 A=    0.0000 R=    0.0000 C=    0.0000
 XYZ=    2.9057    5.9335    9.5239 Q=    0.4100 A=    0.0000 R=    0.0000 C=    0.0000
 XYZ=    4.5025    6.1366    9.2493 Q=    0.4100 A=    0.0000 R=    0.0000 C=    0.0000
 XYZ=   -1.0520   -6.3598  -10.4044 Q=   -0.8200 A=    0.0000 R=    0.0000 C=    0.0000
 XYZ=   -1.7777   -5.6775  -10.4931 Q=    0.4100 A=    0.0000 R=    0.0000 C=    0.0000
 XYZ=   -0.6142   -6.2664   -9.5101 Q=    0.4100 A=    0.0000 R=    0.0000 C=    0.0000
 XYZ=   -9.8771   -6.9740   -0.5712 Q=   -0.8200 A=    0.0000 R=    0.0000 C=    0.0000
 XYZ=  -10.4986   -7.1985   -1.3217 Q=    0.4100 A=    0.0000 R=    0.0000 C=    0.0000
 XYZ=  -10.3777   -6.4798    0.1396 Q=    0.4100 A=    0.0000 R=    0.0000 C=    0.0000
 XYZ=    3.6416   12.9298    1.3518 Q=   -0.8200 A=    0.0000 R=    0.0000 C=    0.0000
 XYZ=    2.8501   12.3407    1.5144 Q=    0.4100 A=    0.0000 R=    0.0000 C=    0.0000
 XYZ=    3.4403   13.8549    1.6737 Q=    0.4100 A=    0.0000 R=    0.0000 C=    0.0000
 XYZ=   -5.0431    5.1031   -9.9324 Q=   -0.8200 A=    0.0000 R=    0.0000 C=    0.0000
 XYZ=   -5.5126    5.9298  -10.2423 Q=    0.4100 A=    0.0000 R=    0.0000 C=    0.0000
 XYZ=   -5.1331    4.3887  -10.6263 Q=    0.4100 A=    0.0000 R=    0.0000 C=    0.0000
 XYZ=   -4.7080   10.8492   -5.4855 Q=   -0.8200 A=    0.0000 R=    0.0000 C=    0.0000
 XYZ=   -4.2804   10.1814   -4.8763 Q=    0.4100 A=    0.0000 R=    0.0000 C=    0.0000
 XYZ=   -4.0214   11.2144   -6.1142 Q=    0.4100 A=    0.0000 R=    0.0000 C=    0.0000
 XYZ=   -3.9759   10.2805    4.2093 Q=   -0.8200 A=    0.0000 R=    0.0000 C=    0.0000
 XYZ=   -3.4278   10.7755    4.8835 Q=    0.4100 A=    0.0000 R=    0.0000 C=    0.0000
 XYZ=   -4.3041   10.9189    3.5130 Q=    0.4100 A=    0.0000 R=    0.0000 C=    0.0000
 XYZ=   -0.1496    3.0300   10.6920 Q=   -0.8200 A=    0.0000 R=    0.0000 C=    0.0000
 XYZ=    0.7174    2.6828   11.0497 Q=    0.4100 A=    0.0000 R=    0.0000 C=    0.0000
 XYZ=   -0.1061    4.0266   10.6222 Q=    0.4100 A=    0.0000 R=    0.0000 C=    0.0000
 XYZ=    3.7144   -7.2051   -7.5663 Q=   -0.8200 A=    0.0000 R=    0.0000 C=    0.0000
 XYZ=    4.2077   -6.4722   -8.0348 Q=    0.4100 A=    0.0000 R=    0.0000 C=    0.0000
 XYZ=    4.1918   -7.4399   -6.7195 Q=    0.4100 A=    0.0000 R=    0.0000 C=    0.0000
 XYZ=   -4.5863   -4.7190   -9.8230 Q=   -0.8200 A=    0.0000 R=    0.0000 C=    0.0000
 XYZ=   -3.8765   -4.5336  -10.5026 Q=    0.4100 A=    0.0000 R=    0.0000 C=    0.0000
 XYZ=   -4.5590   -5.6855   -9.5678 Q=    0.4100 A=    0.0000 R=    0.0000 C=    0.0000
 XYZ=   -8.0687   -5.7173   -7.1292 Q=   -0.8200 A=    0.0000 R=    0.0000 C=    0.0000
 XYZ=   -8.8393   -5.2206   -7.5285 Q=    0.4100 A=    0.0000 R=    0.0000 C=    0.0000
 XYZ=   -8.3903   -6.2674   -6.3584 Q=    0.4100 A=    0.0000 R=    0.0000 C=    0.0000
 XYZ=   -5.1804   -9.6839    5.5993 Q=   -0.8200 A=    0.0000 R=    0.0000 C=    0.0000
 XYZ=   -4.9532   -9.9338    4.6580 Q=    0.4100 A=    0.0000 R=    0.0000 C=    0.0000
 XYZ=   -4.6381   -8.8897    5.8734 Q=    0.4100 A=    0.0000 R=    0.0000 C=    0.0000
 XYZ=    1.7364   -6.1483    9.7326 Q=   -0.8200 A=    0.0000 R=    0.0000 C=    0.0000
 XYZ=    2.6598   -6.5165    9.8413 Q=    0.4100 A=    0.0000 R=    0.0000 C=    0.0000
 XYZ=    1.4075   -5.8080   10.6136 Q=    0.4100 A=    0.0000 R=    0.0000 C=    0.0000
 XYZ=    2.5858   -5.3574   -9.3633 Q=   -0.8200 A=    0.0000 R=    0.0000 C=    0.0000
 XYZ=    2.3602   -6.3283   -9.2816 Q=    0.4100 A=    0.0000 R=    0.0000 C=    0.0000
 XYZ=    3.4710   -5.1835   -8.9319 Q=    0.4100 A=    0.0000 R=    0.0000 C=    0.0000
 XYZ=   -8.2300   -9.4378    3.1985 Q=   -0.8200 A=    0.0000 R=    0.0000 C=    0.0000
 XYZ=   -8.1428  -10.0054    4.0172 Q=    0.4100 A=    0.0000 R=    0.0000 C=    0.0000
 XYZ=   -7.3844   -8.9227    3.0584 Q=    0.4100 A=    0.0000 R=    0.0000 C=    0.0000
 XYZ=    6.9150   10.8566    4.0408 Q=   -0.8200 A=    0.0000 R=    0.0000 C=    0.0000
 XYZ=    6.3497   10.0413    4.1661 Q=    0.4100 A=    0.0000 R=    0.0000 C=    0.0000
 XYZ=    6.4514   11.4919    3.4230 Q=    0.4100 A=    0.0000 R=    0.0000 C=    0.0000
 XYZ=   -2.0522   -3.9129   10.5799 Q=   -0.8200 A=    0.0000 R=    0.0000 C=    0.0000
 XYZ=   -2.0193   -4.8022   11.0360 Q=    0.4100 A=    0.0000 R=    0.0000 C=    0.0000
 XYZ=   -2.4012   -3.2248   11.2161 Q=    0.4100 A=    0.0000 R=    0.0000 C=    0.0000
 XYZ=   10.4891    8.1753   -2.6739 Q=   -0.8200 A=    0.0000 R=    0.0000 C=    0.0000
 XYZ=   10.5047    8.4466   -3.6362 Q=    0.4100 A=    0.0000 R=    0.0000 C=    0.0000
 XYZ=    9.5768    7.8418   -2.4364 Q=    0.4100 A=    0.0000 R=    0.0000 C=    0.0000
 XYZ=    9.3288   -1.0177   -5.9709 Q=   -0.8200 A=    0.0000 R=    0.0000 C=    0.0000
 XYZ=    9.8902   -0.7286   -5.1955 Q=    0.4100 A=    0.0000 R=    0.0000 C=    0.0000
 XYZ=    8.9868   -1.9432   -5.8081 Q=    0.4100 A=    0.0000 R=    0.0000 C=    0.0000
 XYZ=    8.7458   -7.7994   -0.1815 Q=   -0.8200 A=    0.0000 R=    0.0000 C=    0.0000
 XYZ=    8.6715   -7.3408    0.7040 Q=    0.4100 A=    0.0000 R=    0.0000 C=    0.0000
 XYZ=    9.2817   -8.6375   -0.0789 Q=    0.4100 A=    0.0000 R=    0.0000 C=    0.0000
 XYZ=  -11.9024    1.7296    2.9319 Q=   -0.8200 A=    0.0000 R=    0.0000 C=    0.0000
 XYZ=  -11.9230    2.4074    3.6669 Q=    0.4100 A=    0.0000 R=    0.0000 C=    0.0000
 XYZ=  -10.9532    1.4974    2.7192 Q=    0.4100 A=    0.0000 R=    0.0000 C=    0.0000
 XYZ=   -0.0221    5.3330   10.5551 Q=   -0.8200 A=    0.0000 R=    0.0000 C=    0.0000
 XYZ=   -0.1521    6.0024   11.2866 Q=    0.4100 A=    0.0000 R=    0.0000 C=    0.0000
 XYZ=   -0.8796    5.2160   10.0541 Q=    0.4100 A=    0.0000 R=    0.0000 C=    0.0000
 XYZ=   -0.7078   -3.1341  -11.2597 Q=   -0.8200 A=    0.0000 R=    0.0000 C=    0.0000
 XYZ=    0.1690   -3.4006  -10.8594 Q=    0.4100 A=    0.0000 R=    0.0000 C=    0.0000
 XYZ=   -0.6971   -3.3232  -12.2416 Q=    0.4100 A=    0.0000 R=    0.0000 C=    0.0000
 XYZ=   -9.9095    4.8318    4.1544 Q=   -0.8200 A=    0.0000 R=    0.0000 C=    0.0000
 XYZ=   -9.8471    4.5922    3.1856 Q=    0.4100 A=    0.0000 R=    0.0000 C=    0.0000
 XYZ=   -9.0548    5.2602    4.4476 Q=    0.4100 A=    0.0000 R=    0.0000 C=    0.0000
 XYZ=   -8.7514   -7.1698   -5.3897 Q=   -0.8200 A=    0.0000 R=    0.0000 C=    0.0000
 XYZ=   -8.2128   -7.9794   -5.1562 Q=    0.4100 A=    0.0000 R=    0.0000 C=    0.0000
 XYZ=   -9.5626   -7.4465   -5.9050 Q=    0.4100 A=    0.0000 R=    0.0000 C=    0.0000
 XYZ=    1.3776   -4.0570  -10.7444 Q=   -0.8200 A=    0.0000 R=    0.0000 C=    0.0000
 XYZ=    1.8765   -3.2243  -10.9849 Q=    0.4100 A=    0.0000 R=    0.0000 C=    0.0000
 XYZ=    1.9451   -4.6250  -10.1482 Q=    0.4100 A=    0.0000 R=    0.0000 C=    0.0000
[...]
    40  H    0.000000   0.000000   0.000000   0.000000   0.000000   0.000000
    41  H    0.000000   0.000000   0.000000   0.000000   0.000000   0.000000
    42  O    0.000001   0.000000   0.000000   0.000000   0.000000   0.000000
    43  H    0.000000   0.000000   0.000000   0.000000   0.000000   0.000000
    44  H    0.000000   0.000000   0.000000   0.000000   0.000000   0.000000
    45  O    0.000000   0.000000  -0.072361   0.002709   0.000651   0.000000
    46  H    0.000000   0.000000   0.000617   0.000013  -0.000006   0.000000
    47  H    0.000000   0.000000   0.045337   0.000425  -0.002002   0.000000
    48  O    0.000000   0.000000   0.000000   0.000000   0.000000   0.000000
    49  H    0.000000   0.000000   0.000000   0.000000   0.000000   0.000000
    50  H    0.000000   0.000000   0.000000   0.000000   0.000000   0.000000
              31         32         33         34         35         36
     1  C   -0.000145  -0.000002   0.000003   0.000039   0.000171   0.000414
     2  H   -0.000003   0.000000   0.000005   0.000000   0.000000   0.000000
     3  H    0.000000   0.000000   0.000000   0.000000   0.000000   0.000000
     4  C    0.000024  -0.000012   0.000290  -0.000115  -0.000819  -0.000171
     5  H    0.000000   0.000000  -0.000002   0.000000   0.000000   0.000000
     6  C   -0.000113   0.000079  -0.008008   0.000132  -0.000745  -0.000040
     7  H   -0.000001   0.000000  -0.001015   0.000007   0.000010   0.000000
     8  O   -0.000358   0.000033   0.006761  -0.000342   0.004769   0.000000
     9  O    0.000018   0.000001  -0.113554   0.002919  -0.000473  -0.000002
    10  H    0.000008   0.000000   0.002770   0.000190  -0.000415   0.000000
    11  H    0.000000   0.000000   0.046525  -0.001699  -0.000572   0.000000
    12  O    0.039467  -0.000376  -0.004071   0.000137   0.000769   0.000000
    13  H   -0.001107   0.000112   0.000231   0.000000  -0.000216   0.000000
    14  H   -0.000849  -0.000135   0.000032   0.000000   0.000008   0.000000
    15  O    0.000000   0.000000  -0.000087   0.000003   0.000006  -0.018133
    16  H    0.000000   0.000000   0.000000   0.000000   0.000000  -0.000624
    17  H    0.000000   0.000000   0.000007   0.000000  -0.000001   0.002422
    18  O    0.000000   0.000000  -0.000002   0.000000   0.000000  -0.061167
    19  H    0.000000   0.000000   0.000000   0.000000   0.000000  -0.001903
    20  H    0.000000   0.000000   0.000000   0.000000   0.000000  -0.000397
    21  O    0.000000   0.000000   0.000000   0.000000   0.000000  -0.003709
    22  H    0.000000   0.000000   0.000000   0.000000   0.000000   0.000011
    23  H    0.000000   0.000000   0.000000   0.000000   0.000000   0.000043
    24  O   -0.000721  -0.000387  -0.089550   0.003036   0.037590   0.000000
    25  H   -0.000011  -0.000004   0.001558  -0.000049  -0.001509   0.000000
    26  H   -0.000505   0.000033   0.004525  -0.000076   0.000513   0.000000
    27  O    0.000001   0.000000  -0.000473  -0.000115  -0.000055   0.000000
    28  H    0.000000   0.000000   0.000142   0.000001   0.000000   0.000000
    29  H    0.000000   0.000000   0.002366  -0.000001   0.000026   0.000000
    30  O    0.163952   0.209456   0.000118  -0.000001  -0.000004   0.000000
    31  H    0.179561  -0.006594   0.000019   0.000000  -0.000001   0.000000
    32  H   -0.006594   0.195797  -0.000003   0.000000   0.000001   0.000000
    33  O    0.000019  -0.000003   8.999152   0.214925   0.134174   0.000001
    34  H    0.000000   0.000000   0.214925   0.196410  -0.004088   0.000000
    35  H   -0.000001   0.000001   0.134174  -0.004088   0.208863   0.000000
    36  O    0.000000   0.000000   0.000001   0.000000   0.000000   8.937532
    37  H    0.000000   0.000000   0.000000   0.000000   0.000000   0.137275
    38  H    0.000000   0.000000   0.000000   0.000000   0.000000   0.209291
    39  O    0.000000   0.000000   0.000001   0.000000   0.000000  -0.000072
    40  H    0.000000   0.000000   0.000000   0.000000   0.000000   0.000000
    41  H    0.000000   0.000000   0.000000   0.000000   0.000000   0.000052
    42  O    0.000000   0.000000   0.000001   0.000000   0.000000  -0.000247
    43  H    0.000000   0.000000   0.000000   0.000000   0.000000  -0.000001
    44  H    0.000000   0.000000   0.000000   0.000000   0.000000   0.000138
    45  O    0.000000   0.000000   0.000232  -0.000001  -0.000001   0.000000
    46  H    0.000000   0.000000   0.000038   0.000000   0.000000   0.000000
    47  H    0.000000   0.000000   0.000021   0.000000   0.000000   0.000000
    48  O    0.000000   0.000000   0.000000   0.000000   0.000000   0.000001
    49  H    0.000000   0.000000   0.000000   0.000000   0.000000   0.000000
    50  H    0.000000   0.000000   0.000000   0.000000   0.000000   0.000003
              37         38         39         40         41         42
     1  C    0.000259  -0.000009   0.000733   0.000067  -0.000365  -0.001459
     2  H    0.000000   0.000000   0.000000   0.000000   0.000000  -0.000023
     3  H    0.000000   0.000000  -0.000001   0.000000   0.000000   0.000002
     4  C   -0.000216   0.000003  -0.001567  -0.000002   0.000213   0.000527
     5  H    0.000000   0.000000   0.000007   0.000000   0.000000   0.000000
     6  C    0.000030   0.000001  -0.000064  -0.000043   0.000248   0.000017
     7  H    0.000000   0.000000  -0.000004   0.000000   0.000000   0.000000
     8  O   -0.000001   0.000000   0.000023   0.000000  -0.000005  -0.000005
     9  O    0.000000   0.000000   0.000053  -0.000001  -0.000009  -0.000001
    10  H    0.000000   0.000000  -0.000002   0.000000   0.000000   0.000000
    11  H    0.000000   0.000000   0.000000   0.000000   0.000000   0.000000
    12  O    0.000000   0.000000   0.000000   0.000000   0.000000   0.000000
    13  H    0.000000   0.000000   0.000000   0.000000   0.000000   0.000000
    14  H    0.000000   0.000000   0.000000   0.000000   0.000000   0.000000
    15  O   -0.010121   0.001020  -0.000007   0.000000   0.000001  -0.116479
    16  H   -0.001424   0.000024   0.000000   0.000000   0.000000   0.006210
    17  H   -0.000148  -0.000009  -0.000002   0.000000   0.000001   0.006419
    18  O    0.040587   0.000684  -0.000304   0.000002   0.000026  -0.004487
    19  H   -0.005788  -0.000204   0.000004   0.000000   0.000000   0.000620
    20  H    0.000663   0.000044   0.000013   0.000000  -0.000018  -0.000149
    21  O   -0.002730  -0.000058  -0.003120   0.000073   0.000794   0.000002
    22  H    0.000043   0.000001  -0.000078  -0.000001   0.000005   0.000001
    23  H   -0.000044  -0.000002   0.001544  -0.000031  -0.000320   0.000000
    24  O    0.000000   0.000000   0.000000   0.000000   0.000000  -0.000005
    25  H    0.000000   0.000000   0.000000   0.000000   0.000000   0.000001
    26  H    0.000000   0.000000   0.000000   0.000000   0.000000   0.000000
    27  O    0.000000   0.000000   0.000001   0.000000   0.000000   0.000000
    28  H    0.000000   0.000000   0.000000   0.000000   0.000000   0.000000
    29  H    0.000000   0.000000   0.000000   0.000000   0.000000   0.000000
    30  O    0.000000   0.000000   0.000000   0.000000   0.000000   0.000000
    31  H    0.000000   0.000000   0.000000   0.000000   0.000000   0.000000
    32  H    0.000000   0.000000   0.000000   0.000000   0.000000   0.000000
    33  O    0.000000   0.000000   0.000001   0.000000   0.000000   0.000001
    34  H    0.000000   0.000000   0.000000   0.000000   0.000000   0.000000
    35  H    0.000000   0.000000   0.000000   0.000000   0.000000   0.000000
    36  O    0.137275   0.209291  -0.000072   0.000000   0.000052  -0.000247
    37  H    0.210604  -0.003408   0.000006   0.000000  -0.000002  -0.000096
    38  H   -0.003408   0.215162   0.000000   0.000000   0.000000  -0.000002
    39  O    0.000006   0.000000   8.769703   0.215036   0.221579   0.000000
    40  H    0.000000   0.000000   0.215036   0.181115  -0.013412   0.000000
    41  H   -0.000002   0.000000   0.221579  -0.013412   0.255228   0.000000
    42  O   -0.000096  -0.000002   0.000000   0.000000   0.000000   8.987335
    43  H    0.000007   0.000000   0.000000   0.000000   0.000000   0.201775
    44  H    0.000062   0.000000   0.000000   0.000000   0.000000   0.176485
    45  O    0.000000   0.000000  -0.000008   0.000001   0.000000   0.000000
    46  H    0.000000   0.000000   0.000004   0.000000   0.000000   0.000000
    47  H    0.000000   0.000000   0.000000   0.000000   0.000000   0.000000
    48  O   -0.000017  -0.000002  -0.115686   0.002801   0.000496   0.000000
    49  H    0.000000   0.000000  -0.001006  -0.000036   0.000077   0.000000
    50  H   -0.000001   0.000000   0.019031  -0.002231  -0.002286   0.000000
              43         44         45         46         47         48
     1  C    0.000042   0.000095   0.002251   0.003201  -0.000162   0.000991
     2  H    0.000000   0.000004   0.000000   0.000000   0.000000   0.000001
     3  H    0.000000   0.000000   0.000000   0.000000   0.000000  -0.000002
     4  C   -0.000019  -0.000148  -0.008230  -0.003255   0.000422  -0.000193
     5  H    0.000000   0.000000  -0.000100  -0.000014   0.000001   0.000030
     6  C    0.000000   0.000119   0.002612   0.002557  -0.000315  -0.000900
     7  H    0.000000   0.000000   0.001406   0.002246  -0.000070   0.000001
     8  O    0.000000  -0.000004   0.000132   0.000244   0.000182   0.000006
     9  O    0.000000   0.000000   0.006128   0.003842   0.003069   0.000000
    10  H    0.000000   0.000000  -0.000723  -0.000058   0.000236   0.000000
    11  H    0.000000   0.000000   0.000117   0.000044  -0.000022   0.000000
    12  O    0.000000   0.000000   0.000019   0.000004   0.000002   0.000000
    13  H    0.000000   0.000000   0.000000   0.000000   0.000000   0.000000
    14  H    0.000000   0.000000  -0.000001   0.000000   0.000000   0.000000
    15  O    0.002926   0.040852   0.000000   0.000000   0.000000  -0.000021
    16  H   -0.000126  -0.001594   0.000000   0.000000   0.000000   0.000003
    17  H   -0.000034   0.000305   0.000000   0.000000   0.000000   0.000004
    18  O    0.000004   0.001348   0.000000   0.000000   0.000000  -0.001048
    19  H   -0.000019  -0.000032   0.000000   0.000000   0.000000   0.000005
    20  H    0.000003  -0.000004   0.000000   0.000000   0.000000  -0.000114
    21  O   -0.000002  -0.000011   0.000000   0.000000   0.000000  -0.059475
    22  H    0.000000   0.000000   0.000000   0.000000   0.000000   0.001493
    23  H    0.000000   0.000000   0.000000   0.000000   0.000000   0.049923
    24  O    0.000000   0.000004  -0.000004   0.000000   0.000000   0.000000
    25  H    0.000000   0.000000   0.000000   0.000000   0.000000   0.000000
    26  H    0.000000   0.000000   0.000000   0.000000   0.000000   0.000000
    27  O    0.000000   0.000000  -0.072361   0.000617   0.045337   0.000000
    28  H    0.000000   0.000000   0.002709   0.000013   0.000425   0.000000
    29  H    0.000000   0.000000   0.000651  -0.000006  -0.002002   0.000000
    30  O    0.000000   0.000000   0.000000   0.000000   0.000000   0.000000
    31  H    0.000000   0.000000   0.000000   0.000000   0.000000   0.000000
    32  H    0.000000   0.000000   0.000000   0.000000   0.000000   0.000000
    33  O    0.000000   0.000000   0.000232   0.000038   0.000021   0.000000
    34  H    0.000000   0.000000  -0.000001   0.000000   0.000000   0.000000
    35  H    0.000000   0.000000  -0.000001   0.000000   0.000000   0.000000
    36  O   -0.000001   0.000138   0.000000   0.000000   0.000000   0.000001
    37  H    0.000007   0.000062   0.000000   0.000000   0.000000  -0.000017
    38  H    0.000000   0.000000   0.000000   0.000000   0.000000  -0.000002
    39  O    0.000000   0.000000  -0.000008   0.000004   0.000000  -0.115686
    40  H    0.000000   0.000000   0.000001   0.000000   0.000000   0.002801
    41  H    0.000000   0.000000   0.000000   0.000000   0.000000   0.000496
    42  O    0.201775   0.176485   0.000000   0.000000   0.000000   0.000000
    43  H    0.179082  -0.004968   0.000000   0.000000   0.000000   0.000000
    44  H   -0.004968   0.182304   0.000000   0.000000   0.000000   0.000000
    45  O    0.000000   0.000000   8.821488   0.203312   0.156085   0.000000
    46  H    0.000000   0.000000   0.203312   0.324696  -0.005522   0.000000
    47  H    0.000000   0.000000   0.156085  -0.005522   0.183928   0.000000
    48  O    0.000000   0.000000   0.000000   0.000000   0.000000   8.962408
    49  H    0.000000   0.000000   0.000000   0.000000   0.000000   0.211593
    50  H    0.000000   0.000000   0.000000   0.000000   0.000000   0.184856
              49         50
     1  C    0.000057  -0.000148
     2  H    0.000000   0.000000
     3  H    0.000000   0.000000
     4  C   -0.000149   0.000322
     5  H   -0.000002  -0.000002
     6  C    0.000051  -0.000139
     7  H    0.000000   0.000000
     8  O    0.000000   0.000000
     9  O    0.000000   0.000000
    10  H    0.000000   0.000000
    11  H    0.000000   0.000000
    12  O    0.000000   0.000000
    13  H    0.000000   0.000000
    14  H    0.000000   0.000000
    15  O    0.000000   0.000000
    16  H    0.000000   0.000000
    17  H    0.000000   0.000000
    18  O    0.000006   0.000018
    19  H    0.000000   0.000000
    20  H   -0.000002  -0.000042
    21  O    0.001539   0.002332
    22  H   -0.000005  -0.000017
    23  H   -0.000843  -0.000495
    24  O    0.000000   0.000000
    25  H    0.000000   0.000000
    26  H    0.000000   0.000000
    27  O    0.000000   0.000000
    28  H    0.000000   0.000000
    29  H    0.000000   0.000000
    30  O    0.000000   0.000000
    31  H    0.000000   0.000000
    32  H    0.000000   0.000000
    33  O    0.000000   0.000000
    34  H    0.000000   0.000000
    35  H    0.000000   0.000000
    36  O    0.000000   0.000003
    37  H    0.000000  -0.000001
    38  H    0.000000   0.000000
    39  O   -0.001006   0.019031
    40  H   -0.000036  -0.002231
    41  H    0.000077  -0.002286
    42  O    0.000000   0.000000
    43  H    0.000000   0.000000
    44  H    0.000000   0.000000
    45  O    0.000000   0.000000
    46  H    0.000000   0.000000
    47  H    0.000000   0.000000
    48  O    0.211593   0.184856
    49  H    0.168680  -0.005519
    50  H   -0.005519   0.217299
 Mulliken charges:
               1
     1  C   -0.356818
     2  H    0.276943
     3  H    0.241577
     4  C   -0.181706
     5  H    0.233852
     6  C    0.007841
     7  H    0.239425
     8  O   -0.436503
     9  O   -1.211966
    10  H    0.530155
    11  H    0.628438
    12  O   -1.224287
    13  H    0.586911
    14  H    0.650687
    15  O   -1.106677
    16  H    0.644592
    17  H    0.482610
    18  O   -1.426154
    19  H    0.674653
    20  H    0.682130
    21  O   -1.093532
    22  H    0.576519
    23  H    0.564510
    24  O   -1.244471
    25  H    0.640786
    26  H    0.632550
    27  O   -1.252498
    28  H    0.644996
    29  H    0.597793
    30  O   -1.221098
    31  H    0.627357
    32  H    0.602000
    33  O   -1.197130
    34  H    0.588688
    35  H    0.622000
    36  O   -1.200718
    37  H    0.634462
    38  H    0.577465
    39  O   -1.105817
    40  H    0.616663
    41  H    0.537699
    42  O   -1.256442
    43  H    0.621330
    44  H    0.605047
    45  O   -1.115715
    46  H    0.468041
    47  H    0.618388
    48  O   -1.237153
    49  H    0.625559
    50  H    0.587018
 Sum of Mulliken charges =   0.00000
 Mulliken charges with hydrogens summed into heavy atoms:
               1
     1  C    0.161703
     4  C    0.052146
     6  C    0.247266
     8  O   -0.436503
     9  O   -0.053373
    12  O    0.013311
    15  O    0.020525
    18  O   -0.069371
    21  O    0.047496
    24  O    0.028865
    27  O   -0.009709
    30  O    0.008260
    33  O    0.013558
    36  O    0.011209
    39  O    0.048545
    42  O   -0.030065
    45  O   -0.029287
    48  O   -0.024575
 Electronic spatial extent (au):  <R**2>=          12139.9075
 Charge=              0.0000 electrons
 Dipole moment (field-independent basis, Debye):
    X=              7.1444    Y=              3.2612    Z=             -7.2238  Tot=             10.6706
 Quadrupole moment (field-independent basis, Debye-Ang):
   XX=            -70.3910   YY=           -195.6011   ZZ=           -122.6763
   XY=             22.4459   XZ=            -25.7372   YZ=              4.9457
 Traceless Quadrupole moment (field-independent basis, Debye-Ang):
   XX=             59.1651   YY=            -66.0450   ZZ=              6.8799
   XY=             22.4459   XZ=            -25.7372   YZ=              4.9457
 Octapole moment (field-independent basis, Debye-Ang**2):
  XXX=             59.0057  YYY=            -29.9654  ZZZ=             17.1701  XYY=            221.0692
  XXY=           -118.3953  XXZ=            -44.5298  XZZ=             44.8623  YZZ=             59.5972
  YYZ=            -46.9233  XYZ=            118.4000
 Hexadecapole moment (field-independent basis, Debye-Ang**3):
 XXXX=          -4884.6737 YYYY=          -7113.6077 ZZZZ=          -1442.1964 XXXY=           -799.6428
 XXXZ=           -268.0957 YYYX=           1098.8544 YYYZ=            198.5996 ZZZX=           -267.3200
 ZZZY=            -42.3177 XXYY=          -2355.1961 XXZZ=          -1791.9121 YYZZ=          -1244.6121
 XXYZ=            -22.6826 YYXZ=           -594.5172 ZZXY=            -69.7144
 N-N= 1.112646818438D+03 E-N=-6.188494368320D+03  KE= 1.250137620222D+03
 Leave Link  601 at Fri Sep 14 20:06:31 2018, MaxMem=    33554432 cpu:         4.2
 (Enter /usr/local/pacerepov1/gaussian/G09D01LINDA/g09/l9999.exe)

 Test job not archived.
 1\1\GINC-RICH133-B16-21-R\SP\RLC-wPBE TD-FC\6-31+G(d)\C3H32O15\ROOT\14
 -Sep-2018\0\\#p td=(nstates=15)/6-31+g(d) lc-wpbe charge\\Acroleina in
  Water\\0,1\C,0,0.485154,0.480443,-1.430142\H,0,1.461403,0.187773,-1.0
 55732\H,0,0.429244,0.878853,-2.437062\C,0,-0.605127,0.346563,-0.658432
 \H,0,-1.591686,0.632893,-1.012412\C,0,-0.508516,-0.199107,0.712798\H,0
 ,-1.458487,-0.272107,1.272438\O,0,0.544883,-0.561317,1.236519\O,0,-0.7
 51697,-0.276434,2.879127\H,0,-0.332867,-0.586254,2.025557\H,0,-0.03814
 7,-0.113614,3.560597\O,0,1.626183,-3.022825,1.994937\H,0,0.991323,-2.4
 34335,1.494267\H,0,1.129943,-3.806304,2.368917\O,0,3.441723,2.628155,0
 .050737\H,0,3.275733,3.378936,-0.588683\H,0,2.853043,2.736395,0.851827
 \O,0,2.831553,4.479455,-1.049673\H,0,3.438493,5.025096,-1.627503\H,0,1
 .880243,4.670686,-1.291553\O,0,0.704093,4.877616,-1.692663\H,0,0.82034
 3,5.607066,-2.366753\H,0,-0.270347,4.688956,-1.570453\O,0,2.900273,-1.
 625044,3.424317\H,0,3.807453,-1.362534,3.095437\H,0,2.460403,-2.218765
 ,2.750487\O,0,-2.724787,-1.072204,4.017807\H,0,-2.447467,-1.806554,4.6
 37367\H,0,-1.999947,-0.909424,3.348387\O,0,3.441063,-4.317174,0.939077
 \H,0,2.712563,-3.671915,1.169287\H,0,3.726573,-4.805524,1.763707\O,0,1
 .142823,-0.214764,4.362007\H,0,1.505713,0.579586,4.849187\H,0,1.883123
 ,-0.667954,3.865427\O,0,3.525533,5.752766,0.920727\H,0,3.164893,5.2449
 56,0.138347\H,0,3.429923,6.734126,0.753847\O,0,-1.778827,5.680496,0.89
 7657\H,0,-2.671947,5.285486,1.113027\H,0,-1.060287,5.134596,1.328627\O
 ,0,5.803133,2.267966,-0.329283\H,0,6.143163,2.297375,-1.269243\H,0,4.8
 06563,2.185266,-0.337833\O,0,-4.237216,0.126306,2.572777\H,0,-3.625207
 ,0.548316,1.903897\H,0,-3.695877,-0.297444,3.299017\O,0,-1.973987,5.39
 9736,-1.400883\H,0,-2.877177,5.017366,-1.595973\H,0,-1.838837,5.447146
 ,-0.411183\\Version=EM64L-G09RevD.01\State=1-A\HF=-1759.1593776\RMSD=9
 .195e-09\PG=C01 [X(C3H32O15)]\\@


 TWO ROADS DIVERGED IN A WOOD, AND I--
 I TOOK THE ONE LESS TRAVELED BY,
 AND THAT HAS MADE ALL THE DIFFERENCE.

                       -- ROBERT FROST
 Job cpu time:       0 days  2 hours 37 minutes 18.9 seconds.
 File lengths (MBytes):  RWF=    792 Int=      0 D2E=      0 Chk=     96 Scr=      2
 Normal termination of Gaussian 09 at Fri Sep 14 20:06:36 2018.
