 Entering Gaussian System, Link 0=g09
 Input=Acroleina_water_15_69c.gjf
 Output=Acroleina_water_15_69c.log
 Initial command:
 /usr/local/pacerepov1/gaussian/G09D01LINDA/g09/l1.exe /nv/hp18/holiveira7/scratch/22411981/Gau-49030.inp -scrdir=/nv/hp18/holiveira7/scratch/22411981/
 Entering Link 1 = /usr/local/pacerepov1/gaussian/G09D01LINDA/g09/l1.exe PID=     49035.
  
 Copyright (c) 1988,1990,1992,1993,1995,1998,2003,2009,2013,
            Gaussian, Inc.  All Rights Reserved.
  
 This is part of the Gaussian(R) 09 program.  It is based on
 the Gaussian(R) 03 system (copyright 2003, Gaussian, Inc.),
 the Gaussian(R) 98 system (copyright 1998, Gaussian, Inc.),
 the Gaussian(R) 94 system (copyright 1995, Gaussian, Inc.),
 the Gaussian 92(TM) system (copyright 1992, Gaussian, Inc.),
 the Gaussian 90(TM) system (copyright 1990, Gaussian, Inc.),
 the Gaussian 88(TM) system (copyright 1988, Gaussian, Inc.),
 the Gaussian 86(TM) system (copyright 1986, Carnegie Mellon
 University), and the Gaussian 82(TM) system (copyright 1983,
 Carnegie Mellon University). Gaussian is a federally registered
 trademark of Gaussian, Inc.
  
 This software contains proprietary and confidential information,
 including trade secrets, belonging to Gaussian, Inc.
  
 This software is provided under written license and may be
 used, copied, transmitted, or stored only in accord with that
 written license.
  
 The following legend is applicable only to US Government
 contracts under FAR:
  
                    RESTRICTED RIGHTS LEGEND
  
 Use, reproduction and disclosure by the US Government is
 subject to restrictions as set forth in subparagraphs (a)
 and (c) of the Commercial Computer Software - Restricted
 Rights clause in FAR 52.227-19.
  
 Gaussian, Inc.
 340 Quinnipiac St., Bldg. 40, Wallingford CT 06492
  
  
 ---------------------------------------------------------------
 Warning -- This program may not be used in any manner that
 competes with the business of Gaussian, Inc. or will provide
 assistance to any competitor of Gaussian, Inc.  The licensee
 of this program is prohibited from giving any competitor of
 Gaussian, Inc. access to this program.  By using this program,
 the user acknowledges that Gaussian, Inc. is engaged in the
 business of creating and licensing software in the field of
 computational chemistry and represents and warrants to the
 licensee that it is not a competitor of Gaussian, Inc. and that
 it will not use this program in any manner prohibited above.
 ---------------------------------------------------------------
  

 Cite this work as:
 Gaussian 09, Revision D.01,
 M. J. Frisch, G. W. Trucks, H. B. Schlegel, G. E. Scuseria, 
 M. A. Robb, J. R. Cheeseman, G. Scalmani, V. Barone, B. Mennucci, 
 G. A. Petersson, H. Nakatsuji, M. Caricato, X. Li, H. P. Hratchian, 
 A. F. Izmaylov, J. Bloino, G. Zheng, J. L. Sonnenberg, M. Hada, 
 M. Ehara, K. Toyota, R. Fukuda, J. Hasegawa, M. Ishida, T. Nakajima, 
 Y. Honda, O. Kitao, H. Nakai, T. Vreven, J. A. Montgomery, Jr., 
 J. E. Peralta, F. Ogliaro, M. Bearpark, J. J. Heyd, E. Brothers, 
 K. N. Kudin, V. N. Staroverov, T. Keith, R. Kobayashi, J. Normand, 
 K. Raghavachari, A. Rendell, J. C. Burant, S. S. Iyengar, J. Tomasi, 
 M. Cossi, N. Rega, J. M. Millam, M. Klene, J. E. Knox, J. B. Cross, 
 V. Bakken, C. Adamo, J. Jaramillo, R. Gomperts, R. E. Stratmann, 
 O. Yazyev, A. J. Austin, R. Cammi, C. Pomelli, J. W. Ochterski, 
 R. L. Martin, K. Morokuma, V. G. Zakrzewski, G. A. Voth, 
 P. Salvador, J. J. Dannenberg, S. Dapprich, A. D. Daniels, 
 O. Farkas, J. B. Foresman, J. V. Ortiz, J. Cioslowski, 
 and D. J. Fox, Gaussian, Inc., Wallingford CT, 2013.
 
 ******************************************
 Gaussian 09:  EM64L-G09RevD.01 24-Apr-2013
                14-Sep-2018 
 ******************************************
 %chk=Acrolina_Din_69.chk
 %nprocshared=10
 Will use up to   10 processors via shared memory.
 -------------------------------------------
 #p td=(nstates=15)/6-31+g(d) lc-wpbe charge
 -------------------------------------------
 1/18=10,28=-2,38=1,125=101/1;
 2/12=2,17=6,18=5,40=1/2;
 3/5=1,6=6,7=11,11=9,16=1,25=1,30=1,74=-41/1,2,8,3;
 4//1;
 5/5=2,38=5/2;
 8/6=1,10=2,108=15/1;
 9/41=15,42=1,70=2/14;
 6/7=2,8=2,9=2,10=2/1;
 99/5=1,9=1/99;
 Leave Link    1 at Fri Sep 14 17:25:09 2018, MaxMem=           0 cpu:        12.0
 (Enter /usr/local/pacerepov1/gaussian/G09D01LINDA/g09/l101.exe)
 ------------------
 Acroleina in Water
 ------------------
 Symbolic Z-matrix:
 Charge =  0 Multiplicity = 1
 C                     0.48515   0.48044  -1.43014 
 H                     1.4614    0.18777  -1.05573 
 H                     0.42924   0.87885  -2.43706 
 C                    -0.60513   0.34656  -0.65843 
 H                    -1.59169   0.63289  -1.01241 
 C                    -0.50852  -0.19911   0.7128 
 H                    -1.45849  -0.27211   1.27244 
 O                     0.54488  -0.56132   1.23652 
 O                     0.10256  -0.54874   3.13527 
 H                     0.49918  -0.14449   2.31109 
 H                     0.65399  -0.29432   3.92978 
 O                     3.86295   1.82116   0.41201 
 H                     3.52724   2.68455   0.03528 
 H                     3.19304   1.45701   1.05904 
 O                    -1.89935  -1.10167   4.27677 
 H                    -1.68815  -1.88009   4.86794 
 H                    -1.12004  -0.91682   3.67799 
 O                    -3.57482   0.31456   3.27499 
 H                    -3.10226   1.08962   2.85543 
 H                    -2.92937  -0.20677   3.83327 
 O                     1.52514  -2.65818   2.77898 
 H                     0.75723  -2.02272   2.69799 
 H                     1.18162  -3.56814   3.01122 
 O                    -5.44747  -1.70191  -0.18713 
 H                    -5.3603   -1.46607   0.78073 
 H                    -5.29712  -2.68341  -0.30585 
 O                     3.16686   3.75994  -0.61172 
 H                     3.70768   4.30504  -1.25233 
 H                     2.21611   3.72919  -0.92027 
 O                     3.09928  -1.1577    3.44794 
 H                     3.99698  -1.21535   3.01104 
 H                     2.47713  -1.81255   3.01884 
 O                    -5.19875  -1.23183   2.24482 
 H                    -4.47292  -0.62447   2.56783 
 H                    -5.05977  -2.14742   2.62231 
 O                     0.80361   3.9992   -1.23958 
 H                     1.03873   4.77142  -1.82984 
 H                    -0.13291   4.10766  -0.9061 
 O                     1.53174  -0.34378   4.92354 
 H                     1.90847   0.36669   5.51796 
 H                     2.21581  -0.60613   4.24292 
 O                    -6.26998   0.00809  -1.73609 
 H                    -6.16582  -0.39474  -2.64544 
 H                    -6.03414  -0.67162  -1.04149 
 O                     6.17261   1.95722   0.17058 
 H                     6.32389   2.13698  -0.80145 
 H                     5.19372   1.84242   0.33986 
 O                    -3.42319   1.90175  -5.14565 
 H                    -3.32732   1.65038  -4.18248 
 H                    -2.51746   2.04729  -5.54384 
 
 NAtoms=     50 NQM=       50 NQMF=       0 NMMI=      0 NMMIF=      0
                NMic=       0 NMicF=      0.
                    Isotopes and Nuclear Properties:
 (Nuclear quadrupole moments (NQMom) in fm**2, nuclear magnetic moments (NMagM)
  in nuclear magnetons)

  Atom         1           2           3           4           5           6           7           8           9          10
 IAtWgt=          12           1           1          12           1          12           1          16          16           1
 AtmWgt=  12.0000000   1.0078250   1.0078250  12.0000000   1.0078250  12.0000000   1.0078250  15.9949146  15.9949146   1.0078250
 NucSpn=           0           1           1           0           1           0           1           0           0           1
 AtZEff=   0.0000000   0.0000000   0.0000000   0.0000000   0.0000000   0.0000000   0.0000000   0.0000000   0.0000000   0.0000000
 NQMom=    0.0000000   0.0000000   0.0000000   0.0000000   0.0000000   0.0000000   0.0000000   0.0000000   0.0000000   0.0000000
 NMagM=    0.0000000   2.7928460   2.7928460   0.0000000   2.7928460   0.0000000   2.7928460   0.0000000   0.0000000   2.7928460
 AtZNuc=   6.0000000   1.0000000   1.0000000   6.0000000   1.0000000   6.0000000   1.0000000   8.0000000   8.0000000   1.0000000

  Atom        11          12          13          14          15          16          17          18          19          20
 IAtWgt=           1          16           1           1          16           1           1          16           1           1
 AtmWgt=   1.0078250  15.9949146   1.0078250   1.0078250  15.9949146   1.0078250   1.0078250  15.9949146   1.0078250   1.0078250
 NucSpn=           1           0           1           1           0           1           1           0           1           1
 AtZEff=   0.0000000   0.0000000   0.0000000   0.0000000   0.0000000   0.0000000   0.0000000   0.0000000   0.0000000   0.0000000
 NQMom=    0.0000000   0.0000000   0.0000000   0.0000000   0.0000000   0.0000000   0.0000000   0.0000000   0.0000000   0.0000000
 NMagM=    2.7928460   0.0000000   2.7928460   2.7928460   0.0000000   2.7928460   2.7928460   0.0000000   2.7928460   2.7928460
 AtZNuc=   1.0000000   8.0000000   1.0000000   1.0000000   8.0000000   1.0000000   1.0000000   8.0000000   1.0000000   1.0000000

  Atom        21          22          23          24          25          26          27          28          29          30
 IAtWgt=          16           1           1          16           1           1          16           1           1          16
 AtmWgt=  15.9949146   1.0078250   1.0078250  15.9949146   1.0078250   1.0078250  15.9949146   1.0078250   1.0078250  15.9949146
 NucSpn=           0           1           1           0           1           1           0           1           1           0
 AtZEff=   0.0000000   0.0000000   0.0000000   0.0000000   0.0000000   0.0000000   0.0000000   0.0000000   0.0000000   0.0000000
 NQMom=    0.0000000   0.0000000   0.0000000   0.0000000   0.0000000   0.0000000   0.0000000   0.0000000   0.0000000   0.0000000
 NMagM=    0.0000000   2.7928460   2.7928460   0.0000000   2.7928460   2.7928460   0.0000000   2.7928460   2.7928460   0.0000000
 AtZNuc=   8.0000000   1.0000000   1.0000000   8.0000000   1.0000000   1.0000000   8.0000000   1.0000000   1.0000000   8.0000000

  Atom        31          32          33          34          35          36          37          38          39          40
 IAtWgt=           1           1          16           1           1          16           1           1          16           1
 AtmWgt=   1.0078250   1.0078250  15.9949146   1.0078250   1.0078250  15.9949146   1.0078250   1.0078250  15.9949146   1.0078250
 NucSpn=           1           1           0           1           1           0           1           1           0           1
 AtZEff=   0.0000000   0.0000000   0.0000000   0.0000000   0.0000000   0.0000000   0.0000000   0.0000000   0.0000000   0.0000000
 NQMom=    0.0000000   0.0000000   0.0000000   0.0000000   0.0000000   0.0000000   0.0000000   0.0000000   0.0000000   0.0000000
 NMagM=    2.7928460   2.7928460   0.0000000   2.7928460   2.7928460   0.0000000   2.7928460   2.7928460   0.0000000   2.7928460
 AtZNuc=   1.0000000   1.0000000   8.0000000   1.0000000   1.0000000   8.0000000   1.0000000   1.0000000   8.0000000   1.0000000

  Atom        41          42          43          44          45          46          47          48          49          50
 IAtWgt=           1          16           1           1          16           1           1          16           1           1
 AtmWgt=   1.0078250  15.9949146   1.0078250   1.0078250  15.9949146   1.0078250   1.0078250  15.9949146   1.0078250   1.0078250
 NucSpn=           1           0           1           1           0           1           1           0           1           1
 AtZEff=   0.0000000   0.0000000   0.0000000   0.0000000   0.0000000   0.0000000   0.0000000   0.0000000   0.0000000   0.0000000
 NQMom=    0.0000000   0.0000000   0.0000000   0.0000000   0.0000000   0.0000000   0.0000000   0.0000000   0.0000000   0.0000000
 NMagM=    2.7928460   0.0000000   2.7928460   2.7928460   0.0000000   2.7928460   2.7928460   0.0000000   2.7928460   2.7928460
 AtZNuc=   1.0000000   8.0000000   1.0000000   1.0000000   8.0000000   1.0000000   1.0000000   8.0000000   1.0000000   1.0000000
 Background charge distribution read from input stream:
 Point Charges:
 XYZ=   -5.7773    2.3202   -1.6724 Q=   -0.8200 A=    0.0000 R=    0.0000 C=    0.0000
 XYZ=   -6.1762    1.4071   -1.5880 Q=    0.4100 A=    0.0000 R=    0.0000 C=    0.0000
 XYZ=   -6.2534    2.8267   -2.3913 Q=    0.4100 A=    0.0000 R=    0.0000 C=    0.0000
 XYZ=    3.8229   -4.3687    1.0378 Q=   -0.8200 A=    0.0000 R=    0.0000 C=    0.0000
 XYZ=    3.2868   -3.5414    1.2060 Q=    0.4100 A=    0.0000 R=    0.0000 C=    0.0000
 XYZ=    4.2653   -4.6574    1.8869 Q=    0.4100 A=    0.0000 R=    0.0000 C=    0.0000
 XYZ=   -5.6337    1.0591    4.3069 Q=   -0.8200 A=    0.0000 R=    0.0000 C=    0.0000
 XYZ=   -4.7879    0.7695    3.8588 Q=    0.4100 A=    0.0000 R=    0.0000 C=    0.0000
 XYZ=   -5.9464    0.3387    4.9260 Q=    0.4100 A=    0.0000 R=    0.0000 C=    0.0000
 XYZ=    3.5443    5.2521    1.1492 Q=   -0.8200 A=    0.0000 R=    0.0000 C=    0.0000
 XYZ=    3.5189    4.5518    0.4358 Q=    0.4100 A=    0.0000 R=    0.0000 C=    0.0000
 XYZ=    3.5346    6.1585    0.7269 Q=    0.4100 A=    0.0000 R=    0.0000 C=    0.0000
 XYZ=   -5.7406    2.6718    0.7319 Q=   -0.8200 A=    0.0000 R=    0.0000 C=    0.0000
 XYZ=   -5.0818    3.4163    0.8412 Q=    0.4100 A=    0.0000 R=    0.0000 C=    0.0000
 XYZ=   -5.7630    2.3845   -0.2257 Q=    0.4100 A=    0.0000 R=    0.0000 C=    0.0000
 XYZ=   -4.0369    3.7802   -1.6098 Q=   -0.8200 A=    0.0000 R=    0.0000 C=    0.0000
 XYZ=   -4.4377    4.6082   -1.2176 Q=    0.4100 A=    0.0000 R=    0.0000 C=    0.0000
 XYZ=   -4.7273    3.0573   -1.6388 Q=    0.4100 A=    0.0000 R=    0.0000 C=    0.0000
 XYZ=   -1.6185    4.6285   -0.6316 Q=   -0.8200 A=    0.0000 R=    0.0000 C=    0.0000
 XYZ=   -2.4724    4.1483   -0.8322 Q=    0.4100 A=    0.0000 R=    0.0000 C=    0.0000
 XYZ=   -1.6925    5.0834    0.2559 Q=    0.4100 A=    0.0000 R=    0.0000 C=    0.0000
 XYZ=    4.5957   -0.7281   -4.6377 Q=   -0.8200 A=    0.0000 R=    0.0000 C=    0.0000
 XYZ=    4.1338   -0.3736   -5.4507 Q=    0.4100 A=    0.0000 R=    0.0000 C=    0.0000
 XYZ=    5.1667   -0.0103   -4.2393 Q=    0.4100 A=    0.0000 R=    0.0000 C=    0.0000
 XYZ=    5.3377   -1.2772    2.5577 Q=   -0.8200 A=    0.0000 R=    0.0000 C=    0.0000
 XYZ=    5.4393   -0.5073    3.1877 Q=    0.4100 A=    0.0000 R=    0.0000 C=    0.0000
 XYZ=    6.0781   -1.2580    1.8858 Q=    0.4100 A=    0.0000 R=    0.0000 C=    0.0000
 XYZ=   -4.3860   -1.7720    5.9287 Q=   -0.8200 A=    0.0000 R=    0.0000 C=    0.0000
 XYZ=   -3.7901   -1.4856    5.1784 Q=    0.4100 A=    0.0000 R=    0.0000 C=    0.0000
 XYZ=   -3.8275   -2.0876    6.6959 Q=    0.4100 A=    0.0000 R=    0.0000 C=    0.0000
 XYZ=   -5.4570   -4.6481    0.3711 Q=   -0.8200 A=    0.0000 R=    0.0000 C=    0.0000
 XYZ=   -4.9207   -5.2967   -0.1690 Q=    0.4100 A=    0.0000 R=    0.0000 C=    0.0000
 XYZ=   -5.0759   -4.5873    1.2937 Q=    0.4100 A=    0.0000 R=    0.0000 C=    0.0000
 XYZ=    0.8675   -2.1324    6.2487 Q=   -0.8200 A=    0.0000 R=    0.0000 C=    0.0000
 XYZ=    1.1997   -1.3876    5.6699 Q=    0.4100 A=    0.0000 R=    0.0000 C=    0.0000
 XYZ=    0.0674   -2.5544    5.8222 Q=    0.4100 A=    0.0000 R=    0.0000 C=    0.0000
 XYZ=   -4.7303   -3.7440    2.8631 Q=   -0.8200 A=    0.0000 R=    0.0000 C=    0.0000
 XYZ=   -5.3656   -3.7441    3.6353 Q=    0.4100 A=    0.0000 R=    0.0000 C=    0.0000
 XYZ=   -4.1226   -4.5352    2.9314 Q=    0.4100 A=    0.0000 R=    0.0000 C=    0.0000
 XYZ=   -7.4759   -0.4745    2.3483 Q=   -0.8200 A=    0.0000 R=    0.0000 C=    0.0000
 XYZ=   -6.5474   -0.8456    2.3282 Q=    0.4100 A=    0.0000 R=    0.0000 C=    0.0000
 XYZ=   -7.4379    0.5225    2.2807 Q=    0.4100 A=    0.0000 R=    0.0000 C=    0.0000
 XYZ=    3.9085   -2.4785    5.4528 Q=   -0.8200 A=    0.0000 R=    0.0000 C=    0.0000
 XYZ=    3.4472   -2.0402    4.6814 Q=    0.4100 A=    0.0000 R=    0.0000 C=    0.0000
 XYZ=    4.2125   -1.7795    6.1002 Q=    0.4100 A=    0.0000 R=    0.0000 C=    0.0000
 XYZ=   -1.3772    2.4386   -6.1122 Q=   -0.8200 A=    0.0000 R=    0.0000 C=    0.0000
 XYZ=   -1.1927    3.4192   -6.1787 Q=    0.4100 A=    0.0000 R=    0.0000 C=    0.0000
 XYZ=   -1.0938    1.9880   -6.9589 Q=    0.4100 A=    0.0000 R=    0.0000 C=    0.0000
 XYZ=    6.3599    2.2209   -2.0488 Q=   -0.8200 A=    0.0000 R=    0.0000 C=    0.0000
 XYZ=    6.0430    3.0983   -2.4093 Q=    0.4100 A=    0.0000 R=    0.0000 C=    0.0000
 XYZ=    6.4064    1.5527   -2.7914 Q=    0.4100 A=    0.0000 R=    0.0000 C=    0.0000
 XYZ=    1.3335    4.8939   -5.1354 Q=   -0.8200 A=    0.0000 R=    0.0000 C=    0.0000
 XYZ=    1.8171    4.8130   -6.0070 Q=    0.4100 A=    0.0000 R=    0.0000 C=    0.0000
 XYZ=    1.2173    3.9858   -4.7332 Q=    0.4100 A=    0.0000 R=    0.0000 C=    0.0000
 XYZ=   -1.1894   -2.8808    5.6451 Q=   -0.8200 A=    0.0000 R=    0.0000 C=    0.0000
 XYZ=   -1.8147   -2.7860    6.4198 Q=    0.4100 A=    0.0000 R=    0.0000 C=    0.0000
 XYZ=   -1.3339   -3.7680    5.2068 Q=    0.4100 A=    0.0000 R=    0.0000 C=    0.0000
 XYZ=    0.4228   -4.8496    3.2239 Q=   -0.8200 A=    0.0000 R=    0.0000 C=    0.0000
 XYZ=    0.1594   -5.3555    2.4024 Q=    0.4100 A=    0.0000 R=    0.0000 C=    0.0000
 XYZ=    1.1845   -5.3167    3.6729 Q=    0.4100 A=    0.0000 R=    0.0000 C=    0.0000
 XYZ=   -3.2994   -5.5883    2.9484 Q=   -0.8200 A=    0.0000 R=    0.0000 C=    0.0000
 XYZ=   -2.5663   -5.0825    3.4032 Q=    0.4100 A=    0.0000 R=    0.0000 C=    0.0000
 XYZ=   -2.9275   -6.0761    2.1586 Q=    0.4100 A=    0.0000 R=    0.0000 C=    0.0000
 XYZ=   -1.3990   -4.8959    4.5780 Q=   -0.8200 A=    0.0000 R=    0.0000 C=    0.0000
 XYZ=   -0.6182   -4.9142    3.9536 Q=    0.4100 A=    0.0000 R=    0.0000 C=    0.0000
 XYZ=   -1.4261   -5.7468    5.1027 Q=    0.4100 A=    0.0000 R=    0.0000 C=    0.0000
 XYZ=   -8.6532    0.2999   -1.1632 Q=   -0.8200 A=    0.0000 R=    0.0000 C=    0.0000
 XYZ=   -8.9496    1.2042   -1.4704 Q=    0.4100 A=    0.0000 R=    0.0000 C=    0.0000
 XYZ=   -7.6714    0.1985   -1.3243 Q=    0.4100 A=    0.0000 R=    0.0000 C=    0.0000
 XYZ=   -2.5021   -6.5989    0.9440 Q=   -0.8200 A=    0.0000 R=    0.0000 C=    0.0000
 XYZ=   -2.5948   -7.5943    0.9168 Q=    0.4100 A=    0.0000 R=    0.0000 C=    0.0000
 XYZ=   -3.0544   -6.1927    0.2161 Q=    0.4100 A=    0.0000 R=    0.0000 C=    0.0000
 XYZ=    6.1073   -2.3891   -4.0711 Q=   -0.8200 A=    0.0000 R=    0.0000 C=    0.0000
 XYZ=    6.8662   -2.0034   -3.5462 Q=    0.4100 A=    0.0000 R=    0.0000 C=    0.0000
 XYZ=    5.3788   -1.7089   -4.1528 Q=    0.4100 A=    0.0000 R=    0.0000 C=    0.0000
 XYZ=    3.4609    0.1117   -6.5243 Q=   -0.8200 A=    0.0000 R=    0.0000 C=    0.0000
 XYZ=    3.6241    1.0073   -6.9384 Q=    0.4100 A=    0.0000 R=    0.0000 C=    0.0000
 XYZ=    2.4797   -0.0811   -6.5232 Q=    0.4100 A=    0.0000 R=    0.0000 C=    0.0000
 XYZ=    5.9388    0.6725    4.1569 Q=   -0.8200 A=    0.0000 R=    0.0000 C=    0.0000
 XYZ=    6.3344    0.3494    5.0166 Q=    0.4100 A=    0.0000 R=    0.0000 C=    0.0000
 XYZ=    5.2305    1.3515    4.3502 Q=    0.4100 A=    0.0000 R=    0.0000 C=    0.0000
 XYZ=    6.5173    0.4205   -3.4683 Q=   -0.8200 A=    0.0000 R=    0.0000 C=    0.0000
 XYZ=    7.0736    0.5286   -4.2922 Q=    0.4100 A=    0.0000 R=    0.0000 C=    0.0000
 XYZ=    6.8808   -0.3305   -2.9170 Q=    0.4100 A=    0.0000 R=    0.0000 C=    0.0000
 XYZ=   -7.0508    1.8962    2.4560 Q=   -0.8200 A=    0.0000 R=    0.0000 C=    0.0000
 XYZ=   -6.4676    2.1748    1.6929 Q=    0.4100 A=    0.0000 R=    0.0000 C=    0.0000
 XYZ=   -6.4862    1.4969    3.1784 Q=    0.4100 A=    0.0000 R=    0.0000 C=    0.0000
 XYZ=   -1.7996    5.6471    1.5139 Q=   -0.8200 A=    0.0000 R=    0.0000 C=    0.0000
 XYZ=   -2.7755    5.4302    1.4881 Q=    0.4100 A=    0.0000 R=    0.0000 C=    0.0000
 XYZ=   -1.3820    5.2101    2.3106 Q=    0.4100 A=    0.0000 R=    0.0000 C=    0.0000
 XYZ=   -4.2545   -6.1445   -0.7638 Q=   -0.8200 A=    0.0000 R=    0.0000 C=    0.0000
 XYZ=   -4.1547   -5.9878   -1.7465 Q=    0.4100 A=    0.0000 R=    0.0000 C=    0.0000
 XYZ=   -4.3307   -7.1261   -0.5889 Q=    0.4100 A=    0.0000 R=    0.0000 C=    0.0000
 XYZ=    1.8833    6.1457    2.8679 Q=   -0.8200 A=    0.0000 R=    0.0000 C=    0.0000
 XYZ=    1.5651    6.9630    2.3876 Q=    0.4100 A=    0.0000 R=    0.0000 C=    0.0000
 XYZ=    2.4464    5.5950    2.2517 Q=    0.4100 A=    0.0000 R=    0.0000 C=    0.0000
 XYZ=    1.2659    5.9575   -2.8372 Q=   -0.8200 A=    0.0000 R=    0.0000 C=    0.0000
 XYZ=    0.3127    6.0403   -2.5462 Q=    0.4100 A=    0.0000 R=    0.0000 C=    0.0000
 XYZ=    1.3031    5.5227   -3.7370 Q=    0.4100 A=    0.0000 R=    0.0000 C=    0.0000
 XYZ=   -0.3097   -6.1807    1.4056 Q=   -0.8200 A=    0.0000 R=    0.0000 C=    0.0000
 XYZ=    0.1505   -6.7724    0.7437 Q=    0.4100 A=    0.0000 R=    0.0000 C=    0.0000
 XYZ=   -1.2984   -6.2262    1.2623 Q=    0.4100 A=    0.0000 R=    0.0000 C=    0.0000
 XYZ=    6.9688    3.4479    1.7696 Q=   -0.8200 A=    0.0000 R=    0.0000 C=    0.0000
 XYZ=    6.2700    4.1020    2.0592 Q=    0.4100 A=    0.0000 R=    0.0000 C=    0.0000
 XYZ=    6.5463    2.7345    1.2105 Q=    0.4100 A=    0.0000 R=    0.0000 C=    0.0000
 XYZ=   -3.7563    4.9079   -3.6983 Q=   -0.8200 A=    0.0000 R=    0.0000 C=    0.0000
 XYZ=   -3.8991    4.3467   -2.8831 Q=    0.4100 A=    0.0000 R=    0.0000 C=    0.0000
 XYZ=   -4.2109    4.4815   -4.4803 Q=    0.4100 A=    0.0000 R=    0.0000 C=    0.0000
 XYZ=    4.4909    5.5565   -1.7660 Q=   -0.8200 A=    0.0000 R=    0.0000 C=    0.0000
 XYZ=    4.9578    6.0566   -1.0366 Q=    0.4100 A=    0.0000 R=    0.0000 C=    0.0000
 XYZ=    5.1579    5.2715   -2.4544 Q=    0.4100 A=    0.0000 R=    0.0000 C=    0.0000
 XYZ=    7.9773    0.5036    0.9325 Q=   -0.8200 A=    0.0000 R=    0.0000 C=    0.0000
 XYZ=    7.1841    1.1004    0.8113 Q=    0.4100 A=    0.0000 R=    0.0000 C=    0.0000
 XYZ=    7.6675   -0.4300    1.1125 Q=    0.4100 A=    0.0000 R=    0.0000 C=    0.0000
 XYZ=    3.2095    0.8668    6.5063 Q=   -0.8200 A=    0.0000 R=    0.0000 C=    0.0000
 XYZ=    3.7910    0.1532    6.8970 Q=    0.4100 A=    0.0000 R=    0.0000 C=    0.0000
 XYZ=    3.7781    1.5333    6.0242 Q=    0.4100 A=    0.0000 R=    0.0000 C=    0.0000
 XYZ=   -4.1183    1.6897   -7.3361 Q=   -0.8200 A=    0.0000 R=    0.0000 C=    0.0000
 XYZ=   -4.4388    0.7830   -7.6103 Q=    0.4100 A=    0.0000 R=    0.0000 C=    0.0000
 XYZ=   -3.8080    1.6602   -6.3859 Q=    0.4100 A=    0.0000 R=    0.0000 C=    0.0000
 XYZ=    5.3164    4.8872    2.6836 Q=   -0.8200 A=    0.0000 R=    0.0000 C=    0.0000
 XYZ=    4.7820    4.8265    3.5267 Q=    0.4100 A=    0.0000 R=    0.0000 C=    0.0000
 XYZ=    4.6975    4.9531    1.9009 Q=    0.4100 A=    0.0000 R=    0.0000 C=    0.0000
 XYZ=    5.8333   -3.0389    4.1814 Q=   -0.8200 A=    0.0000 R=    0.0000 C=    0.0000
 XYZ=    5.7405   -2.3094    3.5037 Q=    0.4100 A=    0.0000 R=    0.0000 C=    0.0000
 XYZ=    5.1213   -2.9405    4.8766 Q=    0.4100 A=    0.0000 R=    0.0000 C=    0.0000
 XYZ=   -4.1628    4.8501    1.4442 Q=   -0.8200 A=    0.0000 R=    0.0000 C=    0.0000
 XYZ=   -4.6936    5.1750    0.6614 Q=    0.4100 A=    0.0000 R=    0.0000 C=    0.0000
 XYZ=   -4.7296    4.8818    2.2674 Q=    0.4100 A=    0.0000 R=    0.0000 C=    0.0000
 XYZ=   -5.0211    3.6954   -5.2324 Q=   -0.8200 A=    0.0000 R=    0.0000 C=    0.0000
 XYZ=   -5.4712    3.7154   -6.1252 Q=    0.4100 A=    0.0000 R=    0.0000 C=    0.0000
 XYZ=   -4.2859    3.0176   -5.2449 Q=    0.4100 A=    0.0000 R=    0.0000 C=    0.0000
 XYZ=   -0.9874    6.4645   -2.1985 Q=   -0.8200 A=    0.0000 R=    0.0000 C=    0.0000
 XYZ=   -1.2849    5.7577   -1.5566 Q=    0.4100 A=    0.0000 R=    0.0000 C=    0.0000
 XYZ=   -0.9366    7.3441   -1.7256 Q=    0.4100 A=    0.0000 R=    0.0000 C=    0.0000
 XYZ=    7.6806   -1.4689   -2.5408 Q=   -0.8200 A=    0.0000 R=    0.0000 C=    0.0000
 XYZ=    8.5689   -1.1526   -2.2079 Q=    0.4100 A=    0.0000 R=    0.0000 C=    0.0000
 XYZ=    7.1956   -1.9375   -1.8023 Q=    0.4100 A=    0.0000 R=    0.0000 C=    0.0000
 XYZ=   -5.2061   -5.7547   -3.5512 Q=   -0.8200 A=    0.0000 R=    0.0000 C=    0.0000
 XYZ=   -5.3068   -5.3863   -4.4754 Q=    0.4100 A=    0.0000 R=    0.0000 C=    0.0000
 XYZ=   -5.8847   -5.3341   -2.9490 Q=    0.4100 A=    0.0000 R=    0.0000 C=    0.0000
 XYZ=    7.0758   -1.8385    1.1500 Q=   -0.8200 A=    0.0000 R=    0.0000 C=    0.0000
 XYZ=    7.0696   -2.1973    0.2166 Q=    0.4100 A=    0.0000 R=    0.0000 C=    0.0000
 XYZ=    7.4541   -2.5268    1.7691 Q=    0.4100 A=    0.0000 R=    0.0000 C=    0.0000
 XYZ=    4.6081    2.4086    5.6036 Q=   -0.8200 A=    0.0000 R=    0.0000 C=    0.0000
 XYZ=    5.3719    2.2747    6.2350 Q=    0.4100 A=    0.0000 R=    0.0000 C=    0.0000
 XYZ=    4.5200    3.3812    5.3887 Q=    0.4100 A=    0.0000 R=    0.0000 C=    0.0000
 XYZ=   -5.8584   -3.4940    4.9197 Q=   -0.8200 A=    0.0000 R=    0.0000 C=    0.0000
 XYZ=   -6.7064   -3.1350    4.5298 Q=    0.4100 A=    0.0000 R=    0.0000 C=    0.0000
 XYZ=   -5.3299   -2.7434    5.3161 Q=    0.4100 A=    0.0000 R=    0.0000 C=    0.0000
 XYZ=   -7.5480   -5.6734    1.1609 Q=   -0.8200 A=    0.0000 R=    0.0000 C=    0.0000
 XYZ=   -8.3469   -5.3243    0.6710 Q=    0.4100 A=    0.0000 R=    0.0000 C=    0.0000
 XYZ=   -6.7211   -5.2424    0.7998 Q=    0.4100 A=    0.0000 R=    0.0000 C=    0.0000
 XYZ=    8.6282    1.7039   -1.0540 Q=   -0.8200 A=    0.0000 R=    0.0000 C=    0.0000
 XYZ=    7.7788    1.7820   -1.5760 Q=    0.4100 A=    0.0000 R=    0.0000 C=    0.0000
 XYZ=    8.4277    1.3416   -0.1437 Q=    0.4100 A=    0.0000 R=    0.0000 C=    0.0000
 XYZ=    6.0162   -4.5089    0.1625 Q=   -0.8200 A=    0.0000 R=    0.0000 C=    0.0000
 XYZ=    5.1083   -4.5054    0.5817 Q=    0.4100 A=    0.0000 R=    0.0000 C=    0.0000
 XYZ=    6.0511   -5.2087   -0.5510 Q=    0.4100 A=    0.0000 R=    0.0000 C=    0.0000
 XYZ=    1.7537    2.5089    7.4433 Q=   -0.8200 A=    0.0000 R=    0.0000 C=    0.0000
 XYZ=    2.2940    1.7661    7.0479 Q=    0.4100 A=    0.0000 R=    0.0000 C=    0.0000
 XYZ=    1.0295    2.1257    8.0165 Q=    0.4100 A=    0.0000 R=    0.0000 C=    0.0000
 XYZ=   -0.9777    4.9613   -5.6482 Q=   -0.8200 A=    0.0000 R=    0.0000 C=    0.0000
 XYZ=    0.0055    5.0406   -5.4837 Q=    0.4100 A=    0.0000 R=    0.0000 C=    0.0000
 XYZ=   -1.4714    5.5467   -5.0051 Q=    0.4100 A=    0.0000 R=    0.0000 C=    0.0000
 XYZ=    6.1503    4.5156   -3.1373 Q=   -0.8200 A=    0.0000 R=    0.0000 C=    0.0000
 XYZ=    7.1085    4.5777   -2.8582 Q=    0.4100 A=    0.0000 R=    0.0000 C=    0.0000
 XYZ=    6.0984    4.4150   -4.1309 Q=    0.4100 A=    0.0000 R=    0.0000 C=    0.0000
 XYZ=    2.9223    7.3387   -1.8130 Q=   -0.8200 A=    0.0000 R=    0.0000 C=    0.0000
 XYZ=    3.7425    6.8103   -2.0319 Q=    0.4100 A=    0.0000 R=    0.0000 C=    0.0000
 XYZ=    2.1147    6.8570   -2.1533 Q=    0.4100 A=    0.0000 R=    0.0000 C=    0.0000
 XYZ=    3.3786   -6.6729   -0.3714 Q=   -0.8200 A=    0.0000 R=    0.0000 C=    0.0000
 XYZ=    3.1412   -5.7507   -0.0663 Q=    0.4100 A=    0.0000 R=    0.0000 C=    0.0000
 XYZ=    4.1677   -6.6285   -0.9841 Q=    0.4100 A=    0.0000 R=    0.0000 C=    0.0000
 XYZ=   -6.5833   -0.5923    5.8757 Q=   -0.8200 A=    0.0000 R=    0.0000 C=    0.0000
 XYZ=   -7.2089   -1.1378    5.3178 Q=    0.4100 A=    0.0000 R=    0.0000 C=    0.0000
 XYZ=   -5.6871   -1.0353    5.9012 Q=    0.4100 A=    0.0000 R=    0.0000 C=    0.0000
 XYZ=   -5.8947    3.2804    5.2858 Q=   -0.8200 A=    0.0000 R=    0.0000 C=    0.0000
 XYZ=   -5.6838    3.3042    6.2631 Q=    0.4100 A=    0.0000 R=    0.0000 C=    0.0000
 XYZ=   -5.8177    2.3413    4.9511 Q=    0.4100 A=    0.0000 R=    0.0000 C=    0.0000
 XYZ=   -9.4215   -0.3614    0.9946 Q=   -0.8200 A=    0.0000 R=    0.0000 C=    0.0000
 XYZ=   -9.1419   -0.2484    0.0411 Q=    0.4100 A=    0.0000 R=    0.0000 C=    0.0000
 XYZ=   -8.6142   -0.5269    1.5612 Q=    0.4100 A=    0.0000 R=    0.0000 C=    0.0000
 XYZ=    4.5128   -4.9106    3.2802 Q=   -0.8200 A=    0.0000 R=    0.0000 C=    0.0000
 XYZ=    3.7001   -5.2329    3.7656 Q=    0.4100 A=    0.0000 R=    0.0000 C=    0.0000
 XYZ=    4.9173   -4.1444    3.7796 Q=    0.4100 A=    0.0000 R=    0.0000 C=    0.0000
 XYZ=    7.2628   -2.9026   -0.8309 Q=   -0.8200 A=    0.0000 R=    0.0000 C=    0.0000
 XYZ=    6.7313   -3.6360   -0.4069 Q=    0.4100 A=    0.0000 R=    0.0000 C=    0.0000
 XYZ=    8.1334   -3.2689   -1.1593 Q=    0.4100 A=    0.0000 R=    0.0000 C=    0.0000
 XYZ=    2.5624   -3.9394    6.5628 Q=   -0.8200 A=    0.0000 R=    0.0000 C=    0.0000
 XYZ=    3.3535   -3.6035    6.0515 Q=    0.4100 A=    0.0000 R=    0.0000 C=    0.0000
 XYZ=    1.7876   -3.3234    6.4205 Q=    0.4100 A=    0.0000 R=    0.0000 C=    0.0000
 XYZ=    2.1389    6.2061    5.2259 Q=   -0.8200 A=    0.0000 R=    0.0000 C=    0.0000
 XYZ=    1.9600    6.0970    4.2481 Q=    0.4100 A=    0.0000 R=    0.0000 C=    0.0000
 XYZ=    1.5391    5.5968    5.7446 Q=    0.4100 A=    0.0000 R=    0.0000 C=    0.0000
 XYZ=   -0.6276   -1.5815    8.0604 Q=   -0.8200 A=    0.0000 R=    0.0000 C=    0.0000
 XYZ=    0.0497   -1.7739    7.3502 Q=    0.4100 A=    0.0000 R=    0.0000 C=    0.0000
 XYZ=   -0.2777   -1.8867    8.9461 Q=    0.4100 A=    0.0000 R=    0.0000 C=    0.0000
 XYZ=    7.5178    2.2608    3.7398 Q=   -0.8200 A=    0.0000 R=    0.0000 C=    0.0000
 XYZ=    7.2039    2.7615    2.9330 Q=    0.4100 A=    0.0000 R=    0.0000 C=    0.0000
 XYZ=    6.9114    1.4832    3.9063 Q=    0.4100 A=    0.0000 R=    0.0000 C=    0.0000
 XYZ=   -7.7565   -2.1382    4.2725 Q=   -0.8200 A=    0.0000 R=    0.0000 C=    0.0000
 XYZ=   -7.7758   -1.6143    3.4210 Q=    0.4100 A=    0.0000 R=    0.0000 C=    0.0000
 XYZ=   -8.4568   -2.8513    4.2411 Q=    0.4100 A=    0.0000 R=    0.0000 C=    0.0000
 XYZ=   -6.7241    3.4362   -3.5707 Q=   -0.8200 A=    0.0000 R=    0.0000 C=    0.0000
 XYZ=   -6.0643    3.5832   -4.3077 Q=    0.4100 A=    0.0000 R=    0.0000 C=    0.0000
 XYZ=   -7.5658    3.0508   -3.9488 Q=    0.4100 A=    0.0000 R=    0.0000 C=    0.0000
 XYZ=    5.9495   -4.6897   -3.6611 Q=   -0.8200 A=    0.0000 R=    0.0000 C=    0.0000
 XYZ=    6.0155   -3.7187   -3.8910 Q=    0.4100 A=    0.0000 R=    0.0000 C=    0.0000
 XYZ=    5.0412   -5.0291   -3.9055 Q=    0.4100 A=    0.0000 R=    0.0000 C=    0.0000
 XYZ=    4.3091    5.0116    4.8061 Q=   -0.8200 A=    0.0000 R=    0.0000 C=    0.0000
 XYZ=    5.0600    5.1466    5.4527 Q=    0.4100 A=    0.0000 R=    0.0000 C=    0.0000
 XYZ=    3.6042    5.7030    4.9649 Q=    0.4100 A=    0.0000 R=    0.0000 C=    0.0000
 XYZ=   -2.2837    6.4843   -4.3444 Q=   -0.8200 A=    0.0000 R=    0.0000 C=    0.0000
 XYZ=   -1.5746    6.5269   -3.6406 Q=    0.4100 A=    0.0000 R=    0.0000 C=    0.0000
 XYZ=   -2.9696    5.8041   -4.0856 Q=    0.4100 A=    0.0000 R=    0.0000 C=    0.0000
 XYZ=   -0.0853   -7.9936    2.7750 Q=   -0.8200 A=    0.0000 R=    0.0000 C=    0.0000
 XYZ=    0.6449   -8.4759    2.2912 Q=    0.4100 A=    0.0000 R=    0.0000 C=    0.0000
 XYZ=   -0.2612   -7.1179    2.3253 Q=    0.4100 A=    0.0000 R=    0.0000 C=    0.0000
 XYZ=   -5.2794    4.9548    3.5581 Q=   -0.8200 A=    0.0000 R=    0.0000 C=    0.0000
 XYZ=   -6.1334    5.4470    3.3895 Q=    0.4100 A=    0.0000 R=    0.0000 C=    0.0000
 XYZ=   -5.4608    4.1626    4.1407 Q=    0.4100 A=    0.0000 R=    0.0000 C=    0.0000
 XYZ=    2.3150   -5.6248    4.5171 Q=   -0.8200 A=    0.0000 R=    0.0000 C=    0.0000
 XYZ=    1.7619   -6.4006    4.8207 Q=    0.4100 A=    0.0000 R=    0.0000 C=    0.0000
 XYZ=    2.3992   -4.9635    5.2626 Q=    0.4100 A=    0.0000 R=    0.0000 C=    0.0000
 XYZ=   -0.6643    7.8428    0.9520 Q=   -0.8200 A=    0.0000 R=    0.0000 C=    0.0000
 XYZ=   -0.8756    8.4976    1.6777 Q=    0.4100 A=    0.0000 R=    0.0000 C=    0.0000
 XYZ=   -1.1752    6.9972    1.1071 Q=    0.4100 A=    0.0000 R=    0.0000 C=    0.0000
 XYZ=    5.7791   -2.8426   -6.4587 Q=   -0.8200 A=    0.0000 R=    0.0000 C=    0.0000
 XYZ=    5.8449   -2.6758   -5.4749 Q=    0.4100 A=    0.0000 R=    0.0000 C=    0.0000
 XYZ=    6.6110   -3.2978   -6.7760 Q=    0.4100 A=    0.0000 R=    0.0000 C=    0.0000
 XYZ=   -2.6138   -2.4768    7.5956 Q=   -0.8200 A=    0.0000 R=    0.0000 C=    0.0000
 XYZ=   -1.7211   -2.1299    7.8832 Q=    0.4100 A=    0.0000 R=    0.0000 C=    0.0000
 XYZ=   -2.7051   -3.4331    7.8736 Q=    0.4100 A=    0.0000 R=    0.0000 C=    0.0000
 XYZ=    4.8669   -1.1428   -7.8459 Q=   -0.8200 A=    0.0000 R=    0.0000 C=    0.0000
 XYZ=    5.1850   -1.9113   -7.2906 Q=    0.4100 A=    0.0000 R=    0.0000 C=    0.0000
 XYZ=    4.2464   -0.5750   -7.3049 Q=    0.4100 A=    0.0000 R=    0.0000 C=    0.0000
 XYZ=   -5.1865    5.5747   -0.5129 Q=   -0.8200 A=    0.0000 R=    0.0000 C=    0.0000
 XYZ=   -4.8473    6.4975   -0.6958 Q=    0.4100 A=    0.0000 R=    0.0000 C=    0.0000
 XYZ=   -6.0441    5.4309   -1.0067 Q=    0.4100 A=    0.0000 R=    0.0000 C=    0.0000
 XYZ=   -4.6130   -6.9779    4.4320 Q=   -0.8200 A=    0.0000 R=    0.0000 C=    0.0000
 XYZ=   -4.0090   -6.4050    3.8778 Q=    0.4100 A=    0.0000 R=    0.0000 C=    0.0000
 XYZ=   -5.4340   -6.4606    4.6734 Q=    0.4100 A=    0.0000 R=    0.0000 C=    0.0000
 XYZ=    2.4615    4.2033   -7.4037 Q=   -0.8200 A=    0.0000 R=    0.0000 C=    0.0000
 XYZ=    3.0302    4.7790   -6.8162 Q=    0.4100 A=    0.0000 R=    0.0000 C=    0.0000
 XYZ=    2.8016    3.2631   -7.3788 Q=    0.4100 A=    0.0000 R=    0.0000 C=    0.0000
 XYZ=    1.1645    4.7680    7.2745 Q=   -0.8200 A=    0.0000 R=    0.0000 C=    0.0000
 XYZ=    1.3683    5.1316    8.1836 Q=    0.4100 A=    0.0000 R=    0.0000 C=    0.0000
 XYZ=    1.5574    3.8527    7.1859 Q=    0.4100 A=    0.0000 R=    0.0000 C=    0.0000
 XYZ=    3.5655    7.5102    0.3708 Q=   -0.8200 A=    0.0000 R=    0.0000 C=    0.0000
 XYZ=    2.7969    7.8456    0.9157 Q=    0.4100 A=    0.0000 R=    0.0000 C=    0.0000
 XYZ=    3.3039    7.4846   -0.5941 Q=    0.4100 A=    0.0000 R=    0.0000 C=    0.0000
 XYZ=    5.4530   -6.0707   -1.5643 Q=   -0.8200 A=    0.0000 R=    0.0000 C=    0.0000
 XYZ=    6.3016   -6.5909   -1.4675 Q=    0.4100 A=    0.0000 R=    0.0000 C=    0.0000
 XYZ=    5.6143   -5.2759   -2.1494 Q=    0.4100 A=    0.0000 R=    0.0000 C=    0.0000
 XYZ=    3.5589    2.0918   -7.6739 Q=   -0.8200 A=    0.0000 R=    0.0000 C=    0.0000
 XYZ=    4.5410    2.1311   -7.8583 Q=    0.4100 A=    0.0000 R=    0.0000 C=    0.0000
 XYZ=    3.0692    1.8801   -8.5197 Q=    0.4100 A=    0.0000 R=    0.0000 C=    0.0000
 XYZ=   -2.3344    2.5317   -8.6650 Q=   -0.8200 A=    0.0000 R=    0.0000 C=    0.0000
 XYZ=   -3.1488    2.2327   -8.1677 Q=    0.4100 A=    0.0000 R=    0.0000 C=    0.0000
 XYZ=   -2.1130    3.4722   -8.4071 Q=    0.4100 A=    0.0000 R=    0.0000 C=    0.0000
 XYZ=    5.0025   -0.8659    6.9305 Q=   -0.8200 A=    0.0000 R=    0.0000 C=    0.0000
 XYZ=    5.0494   -0.6215    7.8990 Q=    0.4100 A=    0.0000 R=    0.0000 C=    0.0000
 XYZ=    5.9203   -0.8362    6.5344 Q=    0.4100 A=    0.0000 R=    0.0000 C=    0.0000
 XYZ=   -8.0319    4.4266    1.7282 Q=   -0.8200 A=    0.0000 R=    0.0000 C=    0.0000
 XYZ=   -7.6827    3.5305    2.0024 Q=    0.4100 A=    0.0000 R=    0.0000 C=    0.0000
 XYZ=   -9.0182    4.4633    1.8888 Q=    0.4100 A=    0.0000 R=    0.0000 C=    0.0000
 XYZ=   -1.2504    4.7204   -7.8853 Q=   -0.8200 A=    0.0000 R=    0.0000 C=    0.0000
 XYZ=   -1.1453    5.0427   -6.9445 Q=    0.4100 A=    0.0000 R=    0.0000 C=    0.0000
 XYZ=   -1.8707    5.3299   -8.3790 Q=    0.4100 A=    0.0000 R=    0.0000 C=    0.0000
 XYZ=    1.0302   -7.4835   -0.0627 Q=   -0.8200 A=    0.0000 R=    0.0000 C=    0.0000
 XYZ=    1.9354   -7.0655   -0.1392 Q=    0.4100 A=    0.0000 R=    0.0000 C=    0.0000
 XYZ=    0.8472   -8.0337   -0.8774 Q=    0.4100 A=    0.0000 R=    0.0000 C=    0.0000
 XYZ=   -1.7597    0.4343    8.8115 Q=   -0.8200 A=    0.0000 R=    0.0000 C=    0.0000
 XYZ=   -1.3984   -0.3770    8.3518 Q=    0.4100 A=    0.0000 R=    0.0000 C=    0.0000
 XYZ=   -2.6857    0.2470    9.1393 Q=    0.4100 A=    0.0000 R=    0.0000 C=    0.0000
 XYZ=   -9.4744    1.9598    2.2923 Q=   -0.8200 A=    0.0000 R=    0.0000 C=    0.0000
 XYZ=   -8.4900    2.0773    2.4231 Q=    0.4100 A=    0.0000 R=    0.0000 C=    0.0000
 XYZ=   -9.6387    1.1985    1.6650 Q=    0.4100 A=    0.0000 R=    0.0000 C=    0.0000
 XYZ=   -7.0927    5.1878   -1.9106 Q=   -0.8200 A=    0.0000 R=    0.0000 C=    0.0000
 XYZ=   -7.2025    6.1308   -2.2250 Q=    0.4100 A=    0.0000 R=    0.0000 C=    0.0000
 XYZ=   -6.9642    4.5865   -2.6992 Q=    0.4100 A=    0.0000 R=    0.0000 C=    0.0000
 XYZ=   -3.9593    6.3238    4.8698 Q=   -0.8200 A=    0.0000 R=    0.0000 C=    0.0000
 XYZ=   -4.7682    6.6873    5.3318 Q=    0.4100 A=    0.0000 R=    0.0000 C=    0.0000
 XYZ=   -4.2391    5.6377    4.1983 Q=    0.4100 A=    0.0000 R=    0.0000 C=    0.0000
 XYZ=   -0.8217   -1.1502  -10.0454 Q=   -0.8200 A=    0.0000 R=    0.0000 C=    0.0000
 XYZ=   -0.6441   -2.0547  -10.4333 Q=    0.4100 A=    0.0000 R=    0.0000 C=    0.0000
 XYZ=   -1.4052   -1.2425   -9.2385 Q=    0.4100 A=    0.0000 R=    0.0000 C=    0.0000
 XYZ=    7.6880   -3.4195    2.7957 Q=   -0.8200 A=    0.0000 R=    0.0000 C=    0.0000
 XYZ=    7.0373   -3.3112    3.5473 Q=    0.4100 A=    0.0000 R=    0.0000 C=    0.0000
 XYZ=    7.6553   -4.3608    2.4597 Q=    0.4100 A=    0.0000 R=    0.0000 C=    0.0000
 XYZ=   -1.1636    4.2027    7.4870 Q=   -0.8200 A=    0.0000 R=    0.0000 C=    0.0000
 XYZ=   -0.2909    4.5409    7.1347 Q=    0.4100 A=    0.0000 R=    0.0000 C=    0.0000
 XYZ=   -1.0371    3.2861    7.8664 Q=    0.4100 A=    0.0000 R=    0.0000 C=    0.0000
 XYZ=    4.0048    5.5459   -6.1151 Q=   -0.8200 A=    0.0000 R=    0.0000 C=    0.0000
 XYZ=    4.9070    5.2665   -5.7865 Q=    0.4100 A=    0.0000 R=    0.0000 C=    0.0000
 XYZ=    3.7235    6.3827   -5.6454 Q=    0.4100 A=    0.0000 R=    0.0000 C=    0.0000
 XYZ=    9.6049   -0.5027   -1.6597 Q=   -0.8200 A=    0.0000 R=    0.0000 C=    0.0000
 XYZ=    9.1595    0.3531   -1.3965 Q=    0.4100 A=    0.0000 R=    0.0000 C=    0.0000
 XYZ=   10.2015   -0.8096   -0.9181 Q=    0.4100 A=    0.0000 R=    0.0000 C=    0.0000
 XYZ=    5.7740    6.8078   -0.0325 Q=   -0.8200 A=    0.0000 R=    0.0000 C=    0.0000
 XYZ=    5.0488    7.3336    0.4120 Q=    0.4100 A=    0.0000 R=    0.0000 C=    0.0000
 XYZ=    6.6589    7.0677    0.3540 Q=    0.4100 A=    0.0000 R=    0.0000 C=    0.0000
 XYZ=   -5.7253   -5.1552   -5.7930 Q=   -0.8200 A=    0.0000 R=    0.0000 C=    0.0000
 XYZ=   -5.3867   -4.5735   -6.5326 Q=    0.4100 A=    0.0000 R=    0.0000 C=    0.0000
 XYZ=   -6.5724   -5.6016   -6.0813 Q=    0.4100 A=    0.0000 R=    0.0000 C=    0.0000
 XYZ=    1.5208    7.9999    1.5753 Q=   -0.8200 A=    0.0000 R=    0.0000 C=    0.0000
 XYZ=    1.5007    8.6868    2.3018 Q=    0.4100 A=    0.0000 R=    0.0000 C=    0.0000
 XYZ=    0.6404    7.9905    1.1010 Q=    0.4100 A=    0.0000 R=    0.0000 C=    0.0000
 XYZ=    7.8828    0.4173   -5.3093 Q=   -0.8200 A=    0.0000 R=    0.0000 C=    0.0000
 XYZ=    8.2482    1.3161   -5.5519 Q=    0.4100 A=    0.0000 R=    0.0000 C=    0.0000
 XYZ=    8.6308   -0.2445   -5.2607 Q=    0.4100 A=    0.0000 R=    0.0000 C=    0.0000
 XYZ=  -10.9274   -0.2462   -1.8592 Q=   -0.8200 A=    0.0000 R=    0.0000 C=    0.0000
 XYZ=  -11.3480    0.6486   -2.0090 Q=    0.4100 A=    0.0000 R=    0.0000 C=    0.0000
 XYZ=   -9.9734   -0.1242   -1.5853 Q=    0.4100 A=    0.0000 R=    0.0000 C=    0.0000
 XYZ=   -4.8938   -8.1046   -4.1865 Q=   -0.8200 A=    0.0000 R=    0.0000 C=    0.0000
 XYZ=   -5.1515   -7.1675   -3.9510 Q=    0.4100 A=    0.0000 R=    0.0000 C=    0.0000
 XYZ=   -5.6912   -8.5891   -4.5464 Q=    0.4100 A=    0.0000 R=    0.0000 C=    0.0000
 XYZ=   -6.7172   -7.7950    0.8845 Q=   -0.8200 A=    0.0000 R=    0.0000 C=    0.0000
 XYZ=   -7.0180   -6.8419    0.9168 Q=    0.4100 A=    0.0000 R=    0.0000 C=    0.0000
 XYZ=   -6.3225   -8.0500    1.7673 Q=    0.4100 A=    0.0000 R=    0.0000 C=    0.0000
 XYZ=   -6.7266   -5.7623    5.0100 Q=   -0.8200 A=    0.0000 R=    0.0000 C=    0.0000
 XYZ=   -7.3998   -5.6982    4.2733 Q=    0.4100 A=    0.0000 R=    0.0000 C=    0.0000
 XYZ=   -6.3001   -4.8688    5.1505 Q=    0.4100 A=    0.0000 R=    0.0000 C=    0.0000
 XYZ=   -9.3302    2.4216   -2.0328 Q=   -0.8200 A=    0.0000 R=    0.0000 C=    0.0000
 XYZ=  -10.3297    2.3888   -2.0253 Q=    0.4100 A=    0.0000 R=    0.0000 C=    0.0000
 XYZ=   -9.0201    3.2425   -1.5532 Q=    0.4100 A=    0.0000 R=    0.0000 C=    0.0000
 XYZ=   -5.5763    3.6430   -7.6161 Q=   -0.8200 A=    0.0000 R=    0.0000 C=    0.0000
 XYZ=   -5.3393    4.1378   -8.4522 Q=    0.4100 A=    0.0000 R=    0.0000 C=    0.0000
 XYZ=   -5.0247    2.8113   -7.5535 Q=    0.4100 A=    0.0000 R=    0.0000 C=    0.0000
 XYZ=   -4.6586   -8.4033   -0.3524 Q=   -0.8200 A=    0.0000 R=    0.0000 C=    0.0000
 XYZ=   -5.5783   -8.2397    0.0046 Q=    0.4100 A=    0.0000 R=    0.0000 C=    0.0000
 XYZ=   -4.7106   -9.0218   -1.1364 Q=    0.4100 A=    0.0000 R=    0.0000 C=    0.0000
 XYZ=    8.9942    4.5784    1.9916 Q=   -0.8200 A=    0.0000 R=    0.0000 C=    0.0000
 XYZ=    9.1810    4.2694    2.9242 Q=    0.4100 A=    0.0000 R=    0.0000 C=    0.0000
 XYZ=    8.1217    4.1993    1.6834 Q=    0.4100 A=    0.0000 R=    0.0000 C=    0.0000
 XYZ=   -8.6962    4.2561   -0.5753 Q=   -0.8200 A=    0.0000 R=    0.0000 C=    0.0000
 XYZ=   -8.0045    4.7140   -1.1339 Q=    0.4100 A=    0.0000 R=    0.0000 C=    0.0000
 XYZ=   -8.3882    4.2228    0.3755 Q=    0.4100 A=    0.0000 R=    0.0000 C=    0.0000
 XYZ=    6.1587    4.9438   -5.6837 Q=   -0.8200 A=    0.0000 R=    0.0000 C=    0.0000
 XYZ=    6.9233    5.5816   -5.5917 Q=    0.4100 A=    0.0000 R=    0.0000 C=    0.0000
 XYZ=    6.3468    4.3031   -6.4281 Q=    0.4100 A=    0.0000 R=    0.0000 C=    0.0000
 XYZ=    7.1072   -0.5900    5.9605 Q=   -0.8200 A=    0.0000 R=    0.0000 C=    0.0000
 XYZ=    7.5643   -0.1123    6.7108 Q=    0.4100 A=    0.0000 R=    0.0000 C=    0.0000
 XYZ=    7.7935   -0.9767    5.3444 Q=    0.4100 A=    0.0000 R=    0.0000 C=    0.0000
 XYZ=    6.9714   -0.0913   -7.5506 Q=   -0.8200 A=    0.0000 R=    0.0000 C=    0.0000
 XYZ=    7.1704    0.1446   -6.5993 Q=    0.4100 A=    0.0000 R=    0.0000 C=    0.0000
 XYZ=    6.0959   -0.5722   -7.5986 Q=    0.4100 A=    0.0000 R=    0.0000 C=    0.0000
 XYZ=    9.9423    3.5302   -1.3460 Q=   -0.8200 A=    0.0000 R=    0.0000 C=    0.0000
 XYZ=    9.3021    2.7780   -1.1900 Q=    0.4100 A=    0.0000 R=    0.0000 C=    0.0000
 XYZ=   10.4226    3.7410   -0.4946 Q=    0.4100 A=    0.0000 R=    0.0000 C=    0.0000
 XYZ=   -1.3904   -6.6295    6.0847 Q=   -0.8200 A=    0.0000 R=    0.0000 C=    0.0000
 XYZ=   -1.1243   -6.1719    6.9331 Q=    0.4100 A=    0.0000 R=    0.0000 C=    0.0000
 XYZ=   -2.1704   -7.2302    6.2604 Q=    0.4100 A=    0.0000 R=    0.0000 C=    0.0000
 XYZ=   -8.8146    2.8303   -4.3344 Q=   -0.8200 A=    0.0000 R=    0.0000 C=    0.0000
 XYZ=   -8.9821    2.7337   -3.3532 Q=    0.4100 A=    0.0000 R=    0.0000 C=    0.0000
 XYZ=   -9.6208    2.5254   -4.8416 Q=    0.4100 A=    0.0000 R=    0.0000 C=    0.0000
 XYZ=   10.2190    0.3791    1.8207 Q=   -0.8200 A=    0.0000 R=    0.0000 C=    0.0000
 XYZ=   10.2724    0.4401    2.8174 Q=    0.4100 A=    0.0000 R=    0.0000 C=    0.0000
 XYZ=    9.2601    0.3889    1.5371 Q=    0.4100 A=    0.0000 R=    0.0000 C=    0.0000
 XYZ=   -5.0248   -0.1792   -8.5187 Q=   -0.8200 A=    0.0000 R=    0.0000 C=    0.0000
 XYZ=   -5.5548   -0.9733   -8.2213 Q=    0.4100 A=    0.0000 R=    0.0000 C=    0.0000
 XYZ=   -4.5327   -0.4030   -9.3601 Q=    0.4100 A=    0.0000 R=    0.0000 C=    0.0000
 XYZ=    7.4671    6.3931    2.3964 Q=   -0.8200 A=    0.0000 R=    0.0000 C=    0.0000
 XYZ=    6.5739    5.9484    2.4633 Q=    0.4100 A=    0.0000 R=    0.0000 C=    0.0000
 XYZ=    8.1768    5.6989    2.2763 Q=    0.4100 A=    0.0000 R=    0.0000 C=    0.0000
 XYZ=   -8.3333   -5.9374    3.2981 Q=   -0.8200 A=    0.0000 R=    0.0000 C=    0.0000
 XYZ=   -8.0477   -5.8014    2.3494 Q=    0.4100 A=    0.0000 R=    0.0000 C=    0.0000
 XYZ=   -8.8212   -6.8067    3.3779 Q=    0.4100 A=    0.0000 R=    0.0000 C=    0.0000
 XYZ=    8.2811    4.8192   -2.4161 Q=   -0.8200 A=    0.0000 R=    0.0000 C=    0.0000
 XYZ=    9.0214    4.2749   -2.0214 Q=    0.4100 A=    0.0000 R=    0.0000 C=    0.0000
 XYZ=    8.2401    5.7075   -1.9587 Q=    0.4100 A=    0.0000 R=    0.0000 C=    0.0000
 XYZ=    7.3871   -5.5676    1.9693 Q=   -0.8200 A=    0.0000 R=    0.0000 C=    0.0000
 XYZ=    6.9170   -5.1416    1.1963 Q=    0.4100 A=    0.0000 R=    0.0000 C=    0.0000
 XYZ=    6.7135   -5.9789    2.5835 Q=    0.4100 A=    0.0000 R=    0.0000 C=    0.0000
 XYZ=   -9.2971   -5.0674   -0.0954 Q=   -0.8200 A=    0.0000 R=    0.0000 C=    0.0000
 XYZ=   -9.4040   -5.7544   -0.8141 Q=    0.4100 A=    0.0000 R=    0.0000 C=    0.0000
 XYZ=  -10.1059   -5.0715    0.4926 Q=    0.4100 A=    0.0000 R=    0.0000 C=    0.0000
 XYZ=   -0.4139    2.2719    8.7758 Q=   -0.8200 A=    0.0000 R=    0.0000 C=    0.0000
 XYZ=   -0.9683    1.4418    8.8370 Q=    0.4100 A=    0.0000 R=    0.0000 C=    0.0000
 XYZ=   -0.2467    2.6294    9.6946 Q=    0.4100 A=    0.0000 R=    0.0000 C=    0.0000
 XYZ=    1.2487    9.2759   -1.5032 Q=   -0.8200 A=    0.0000 R=    0.0000 C=    0.0000
 XYZ=    1.1529    9.8820   -2.2927 Q=    0.4100 A=    0.0000 R=    0.0000 C=    0.0000
 XYZ=    1.9732    8.6098   -1.6804 Q=    0.4100 A=    0.0000 R=    0.0000 C=    0.0000
 XYZ=   -2.7093   -8.9466    0.9286 Q=   -0.8200 A=    0.0000 R=    0.0000 C=    0.0000
 XYZ=   -3.5408   -8.8440    0.3826 Q=    0.4100 A=    0.0000 R=    0.0000 C=    0.0000
 XYZ=   -2.1119   -9.6256    0.5018 Q=    0.4100 A=    0.0000 R=    0.0000 C=    0.0000
 XYZ=    0.8467   -7.2769    5.0809 Q=   -0.8200 A=    0.0000 R=    0.0000 C=    0.0000
 XYZ=    0.0273   -7.1675    5.6437 Q=    0.4100 A=    0.0000 R=    0.0000 C=    0.0000
 XYZ=    0.5922   -7.6599    4.1928 Q=    0.4100 A=    0.0000 R=    0.0000 C=    0.0000
 XYZ=   -3.5683   -7.0101   -6.1046 Q=   -0.8200 A=    0.0000 R=    0.0000 C=    0.0000
 XYZ=   -4.2282   -6.2847   -6.3003 Q=    0.4100 A=    0.0000 R=    0.0000 C=    0.0000
 XYZ=   -3.9084   -7.5763   -5.3538 Q=    0.4100 A=    0.0000 R=    0.0000 C=    0.0000
 XYZ=    2.9918    2.8082    9.5210 Q=   -0.8200 A=    0.0000 R=    0.0000 C=    0.0000
 XYZ=    3.9802    2.8987    9.3985 Q=    0.4100 A=    0.0000 R=    0.0000 C=    0.0000
 XYZ=    2.5529    2.7101    8.6278 Q=    0.4100 A=    0.0000 R=    0.0000 C=    0.0000
 XYZ=   -7.2708    1.3005    7.2988 Q=   -0.8200 A=    0.0000 R=    0.0000 C=    0.0000
 XYZ=   -7.1853    0.3760    6.9273 Q=    0.4100 A=    0.0000 R=    0.0000 C=    0.0000
 XYZ=   -6.7198    1.9315    6.7525 Q=    0.4100 A=    0.0000 R=    0.0000 C=    0.0000
 XYZ=   -4.8282   -4.0039   -7.7120 Q=   -0.8200 A=    0.0000 R=    0.0000 C=    0.0000
 XYZ=   -4.4237   -4.3009   -8.5770 Q=    0.4100 A=    0.0000 R=    0.0000 C=    0.0000
 XYZ=   -5.3045   -3.1351   -7.8477 Q=    0.4100 A=    0.0000 R=    0.0000 C=    0.0000
 XYZ=    7.9972   -5.0899   -2.6991 Q=   -0.8200 A=    0.0000 R=    0.0000 C=    0.0000
 XYZ=    7.0967   -5.1364   -3.1316 Q=    0.4100 A=    0.0000 R=    0.0000 C=    0.0000
 XYZ=    8.7070   -5.2062   -3.3938 Q=    0.4100 A=    0.0000 R=    0.0000 C=    0.0000
 XYZ=   -0.8858    8.5388   -1.2238 Q=   -0.8200 A=    0.0000 R=    0.0000 C=    0.0000
 XYZ=    0.0228    8.9009   -1.4320 Q=    0.4100 A=    0.0000 R=    0.0000 C=    0.0000
 XYZ=   -0.9381    8.3082   -0.2521 Q=    0.4100 A=    0.0000 R=    0.0000 C=    0.0000
 XYZ=    0.8800    4.8762   -8.9875 Q=   -0.8200 A=    0.0000 R=    0.0000 C=    0.0000
 XYZ=    0.0279    4.6751   -8.5042 Q=    0.4100 A=    0.0000 R=    0.0000 C=    0.0000
 XYZ=    1.6574    4.6460   -8.4021 Q=    0.4100 A=    0.0000 R=    0.0000 C=    0.0000
 XYZ=   -2.7505    5.9403    6.9261 Q=   -0.8200 A=    0.0000 R=    0.0000 C=    0.0000
 XYZ=   -3.1014    6.0405    5.9950 Q=    0.4100 A=    0.0000 R=    0.0000 C=    0.0000
 XYZ=   -2.1870    5.1161    6.9829 Q=    0.4100 A=    0.0000 R=    0.0000 C=    0.0000
 XYZ=    0.1440   -6.4855   -8.3745 Q=   -0.8200 A=    0.0000 R=    0.0000 C=    0.0000
 XYZ=    0.7303   -5.9418   -7.7738 Q=    0.4100 A=    0.0000 R=    0.0000 C=    0.0000
 XYZ=   -0.6275   -6.8458   -7.8501 Q=    0.4100 A=    0.0000 R=    0.0000 C=    0.0000
 XYZ=  -11.3530   -1.5115    1.4839 Q=   -0.8200 A=    0.0000 R=    0.0000 C=    0.0000
 XYZ=  -10.5164   -1.0234    1.2352 Q=    0.4100 A=    0.0000 R=    0.0000 C=    0.0000
 XYZ=  -11.1326   -2.2437    2.1284 Q=    0.4100 A=    0.0000 R=    0.0000 C=    0.0000
 XYZ=    5.8710    2.0225   -7.9244 Q=   -0.8200 A=    0.0000 R=    0.0000 C=    0.0000
 XYZ=    6.5153    2.7112   -7.5917 Q=    0.4100 A=    0.0000 R=    0.0000 C=    0.0000
 XYZ=    6.3058    1.1222   -7.9045 Q=    0.4100 A=    0.0000 R=    0.0000 C=    0.0000
 XYZ=    1.0146    8.2888    5.1416 Q=   -0.8200 A=    0.0000 R=    0.0000 C=    0.0000
 XYZ=    1.6459    7.5182    5.2286 Q=    0.4100 A=    0.0000 R=    0.0000 C=    0.0000
 XYZ=    0.0825    7.9790    5.3294 Q=    0.4100 A=    0.0000 R=    0.0000 C=    0.0000
 XYZ=    1.3320   -4.3238    8.7400 Q=   -0.8200 A=    0.0000 R=    0.0000 C=    0.0000
 XYZ=    1.9445   -4.0721    7.9906 Q=    0.4100 A=    0.0000 R=    0.0000 C=    0.0000
 XYZ=    1.8622   -4.7413    9.4779 Q=    0.4100 A=    0.0000 R=    0.0000 C=    0.0000
 XYZ=    6.3303    2.1660    7.2060 Q=   -0.8200 A=    0.0000 R=    0.0000 C=    0.0000
 XYZ=    6.9835    2.7791    6.7616 Q=    0.4100 A=    0.0000 R=    0.0000 C=    0.0000
 XYZ=    5.8592    2.6560    7.9395 Q=    0.4100 A=    0.0000 R=    0.0000 C=    0.0000
 XYZ=    1.3073   -0.1934  -10.5960 Q=   -0.8200 A=    0.0000 R=    0.0000 C=    0.0000
 XYZ=    1.9067   -0.9932  -10.6306 Q=    0.4100 A=    0.0000 R=    0.0000 C=    0.0000
 XYZ=    0.4084   -0.4651  -10.2522 Q=    0.4100 A=    0.0000 R=    0.0000 C=    0.0000
 XYZ=    2.4404    1.6783   -9.5656 Q=   -0.8200 A=    0.0000 R=    0.0000 C=    0.0000
 XYZ=    2.1899    2.5845   -9.9062 Q=    0.4100 A=    0.0000 R=    0.0000 C=    0.0000
 XYZ=    2.0039    0.9777  -10.1301 Q=    0.4100 A=    0.0000 R=    0.0000 C=    0.0000
 XYZ=   -7.4762    5.2381    5.2008 Q=   -0.8200 A=    0.0000 R=    0.0000 C=    0.0000
 XYZ=   -7.0028    4.3589    5.2563 Q=    0.4100 A=    0.0000 R=    0.0000 C=    0.0000
 XYZ=   -6.8882    5.9572    5.5712 Q=    0.4100 A=    0.0000 R=    0.0000 C=    0.0000
 XYZ=   -1.5288   -7.3996   -7.2120 Q=   -0.8200 A=    0.0000 R=    0.0000 C=    0.0000
 XYZ=   -1.8703   -7.7099   -8.0992 Q=    0.4100 A=    0.0000 R=    0.0000 C=    0.0000
 XYZ=   -2.3011   -7.1742   -6.6180 Q=    0.4100 A=    0.0000 R=    0.0000 C=    0.0000
 XYZ=    9.5859    3.3503    3.9906 Q=   -0.8200 A=    0.0000 R=    0.0000 C=    0.0000
 XYZ=    8.7200    2.8632    3.8769 Q=    0.4100 A=    0.0000 R=    0.0000 C=    0.0000
 XYZ=   10.2892    2.7116    4.3028 Q=    0.4100 A=    0.0000 R=    0.0000 C=    0.0000
 XYZ=   -7.1840    6.2950    2.9157 Q=   -0.8200 A=    0.0000 R=    0.0000 C=    0.0000
 XYZ=   -7.3566    5.9206    3.8268 Q=    0.4100 A=    0.0000 R=    0.0000 C=    0.0000
 XYZ=   -7.4353    5.6178    2.2240 Q=    0.4100 A=    0.0000 R=    0.0000 C=    0.0000
 XYZ=   -2.6690    8.1303    3.9989 Q=   -0.8200 A=    0.0000 R=    0.0000 C=    0.0000
 XYZ=   -3.1600    7.3227    4.3259 Q=    0.4100 A=    0.0000 R=    0.0000 C=    0.0000
 XYZ=   -3.1818    8.9535    4.2427 Q=    0.4100 A=    0.0000 R=    0.0000 C=    0.0000
 XYZ=    9.5173   -1.3825   -5.1700 Q=   -0.8200 A=    0.0000 R=    0.0000 C=    0.0000
 XYZ=   10.2034   -1.0088   -4.5457 Q=    0.4100 A=    0.0000 R=    0.0000 C=    0.0000
 XYZ=    8.9816   -2.0817   -4.6964 Q=    0.4100 A=    0.0000 R=    0.0000 C=    0.0000
 XYZ=    9.1751   -4.2234   -1.0847 Q=   -0.8200 A=    0.0000 R=    0.0000 C=    0.0000
 XYZ=   10.1446   -4.3838   -1.2704 Q=    0.4100 A=    0.0000 R=    0.0000 C=    0.0000
 XYZ=    8.6312   -4.5271   -1.8670 Q=    0.4100 A=    0.0000 R=    0.0000 C=    0.0000
 XYZ=   -5.6783    3.2132    7.6323 Q=   -0.8200 A=    0.0000 R=    0.0000 C=    0.0000
 XYZ=   -5.8548    2.6902    8.4661 Q=    0.4100 A=    0.0000 R=    0.0000 C=    0.0000
 XYZ=   -5.4137    4.1467    7.8742 Q=    0.4100 A=    0.0000 R=    0.0000 C=    0.0000
 XYZ=   -0.6642   -5.6100    8.0207 Q=   -0.8200 A=    0.0000 R=    0.0000 C=    0.0000
 XYZ=    0.1239   -5.0393    8.2517 Q=    0.4100 A=    0.0000 R=    0.0000 C=    0.0000
 XYZ=   -1.4942   -5.2016    8.4004 Q=    0.4100 A=    0.0000 R=    0.0000 C=    0.0000
 XYZ=   -3.6855   -7.7984    6.4508 Q=   -0.8200 A=    0.0000 R=    0.0000 C=    0.0000
 XYZ=   -4.0067   -7.4751    5.5607 Q=    0.4100 A=    0.0000 R=    0.0000 C=    0.0000
 XYZ=   -4.1376   -7.2800    7.1767 Q=    0.4100 A=    0.0000 R=    0.0000 C=    0.0000
 XYZ=   -1.2058    7.6871    5.7776 Q=   -0.8200 A=    0.0000 R=    0.0000 C=    0.0000
 XYZ=   -1.6936    8.0211    4.9710 Q=    0.4100 A=    0.0000 R=    0.0000 C=    0.0000
 XYZ=   -1.6930    6.9020    6.1603 Q=    0.4100 A=    0.0000 R=    0.0000 C=    0.0000
 XYZ=   -9.2024   -3.9907    4.1865 Q=   -0.8200 A=    0.0000 R=    0.0000 C=    0.0000
 XYZ=   -8.8625   -4.8794    3.8788 Q=    0.4100 A=    0.0000 R=    0.0000 C=    0.0000
 XYZ=   -9.5985   -4.0835    5.1000 Q=    0.4100 A=    0.0000 R=    0.0000 C=    0.0000
 XYZ=   -2.2990    2.7696  -11.0055 Q=   -0.8200 A=    0.0000 R=    0.0000 C=    0.0000
 XYZ=   -2.3603    2.7457  -10.0077 Q=    0.4100 A=    0.0000 R=    0.0000 C=    0.0000
 XYZ=   -2.1764    1.8405  -11.3543 Q=    0.4100 A=    0.0000 R=    0.0000 C=    0.0000
 XYZ=   -1.8284   -9.7080    2.8928 Q=   -0.8200 A=    0.0000 R=    0.0000 C=    0.0000
 XYZ=   -1.1117   -9.0360    3.0792 Q=    0.4100 A=    0.0000 R=    0.0000 C=    0.0000
 XYZ=   -2.4199   -9.3702    2.1607 Q=    0.4100 A=    0.0000 R=    0.0000 C=    0.0000
 XYZ=   -4.4278    7.7813   -0.5830 Q=   -0.8200 A=    0.0000 R=    0.0000 C=    0.0000
 XYZ=   -3.9148    8.3914   -1.1868 Q=    0.4100 A=    0.0000 R=    0.0000 C=    0.0000
 XYZ=   -4.9385    8.3242    0.0837 Q=    0.4100 A=    0.0000 R=    0.0000 C=    0.0000
 XYZ=    6.2242    5.2431    6.2958 Q=   -0.8200 A=    0.0000 R=    0.0000 C=    0.0000
 XYZ=    6.7069    6.1120    6.4052 Q=    0.4100 A=    0.0000 R=    0.0000 C=    0.0000
 XYZ=    6.8862    4.5133    6.1253 Q=    0.4100 A=    0.0000 R=    0.0000 C=    0.0000
 XYZ=   -2.6651   -4.6602    8.6909 Q=   -0.8200 A=    0.0000 R=    0.0000 C=    0.0000
 XYZ=   -3.5070   -5.1730    8.8587 Q=    0.4100 A=    0.0000 R=    0.0000 C=    0.0000
 XYZ=   -2.2720   -4.3703    9.5635 Q=    0.4100 A=    0.0000 R=    0.0000 C=    0.0000
 XYZ=    7.3892    3.5311   -7.1277 Q=   -0.8200 A=    0.0000 R=    0.0000 C=    0.0000
 XYZ=    7.8241    4.2535   -7.6652 Q=    0.4100 A=    0.0000 R=    0.0000 C=    0.0000
 XYZ=    8.0244    3.2101   -6.4252 Q=    0.4100 A=    0.0000 R=    0.0000 C=    0.0000
 XYZ=   -5.9777   -8.5757    3.1538 Q=   -0.8200 A=    0.0000 R=    0.0000 C=    0.0000
 XYZ=   -5.6221   -7.8890    3.7879 Q=    0.4100 A=    0.0000 R=    0.0000 C=    0.0000
 XYZ=   -5.3059   -9.3084    3.0448 Q=    0.4100 A=    0.0000 R=    0.0000 C=    0.0000
 XYZ=   -2.7313    8.9600   -4.1771 Q=   -0.8200 A=    0.0000 R=    0.0000 C=    0.0000
 XYZ=   -3.0629    9.0226   -3.2357 Q=    0.4100 A=    0.0000 R=    0.0000 C=    0.0000
 XYZ=   -2.6137    7.9985   -4.4258 Q=    0.4100 A=    0.0000 R=    0.0000 C=    0.0000
 XYZ=   -2.0101    0.3043  -11.3136 Q=   -0.8200 A=    0.0000 R=    0.0000 C=    0.0000
 XYZ=   -1.4783   -0.2975  -10.7177 Q=    0.4100 A=    0.0000 R=    0.0000 C=    0.0000
 XYZ=   -2.9857    0.1398  -11.1683 Q=    0.4100 A=    0.0000 R=    0.0000 C=    0.0000
 XYZ=    8.8966    2.7894   -5.4673 Q=   -0.8200 A=    0.0000 R=    0.0000 C=    0.0000
 XYZ=    8.9340    3.7279   -5.1240 Q=    0.4100 A=    0.0000 R=    0.0000 C=    0.0000
 XYZ=    9.6464    2.2595   -5.0710 Q=    0.4100 A=    0.0000 R=    0.0000 C=    0.0000
 XYZ=   -4.8888   -9.5968   -2.2137 Q=   -0.8200 A=    0.0000 R=    0.0000 C=    0.0000
 XYZ=   -5.5752  -10.3102   -2.3548 Q=    0.4100 A=    0.0000 R=    0.0000 C=    0.0000
 XYZ=   -4.8009   -9.0496   -3.0462 Q=    0.4100 A=    0.0000 R=    0.0000 C=    0.0000
 XYZ=    9.3827    5.0147   -4.5700 Q=   -0.8200 A=    0.0000 R=    0.0000 C=    0.0000
 XYZ=    8.9286    4.8310   -3.6981 Q=    0.4100 A=    0.0000 R=    0.0000 C=    0.0000
 XYZ=   10.3689    5.0905   -4.4227 Q=    0.4100 A=    0.0000 R=    0.0000 C=    0.0000
 XYZ=    9.8292   -3.7305    1.2703 Q=   -0.8200 A=    0.0000 R=    0.0000 C=    0.0000
 XYZ=    9.1865   -3.3638    1.9430 Q=    0.4100 A=    0.0000 R=    0.0000 C=    0.0000
 XYZ=    9.3859   -3.7740    0.3750 Q=    0.4100 A=    0.0000 R=    0.0000 C=    0.0000
 XYZ=    7.8922    3.4964    6.1082 Q=   -0.8200 A=    0.0000 R=    0.0000 C=    0.0000
 XYZ=    8.3789    3.3063    5.2556 Q=    0.4100 A=    0.0000 R=    0.0000 C=    0.0000
 XYZ=    8.5450    3.5255    6.8652 Q=    0.4100 A=    0.0000 R=    0.0000 C=    0.0000
 XYZ=    4.9958   -5.3342   -8.2102 Q=   -0.8200 A=    0.0000 R=    0.0000 C=    0.0000
 XYZ=    5.7642   -5.3391   -8.8501 Q=    0.4100 A=    0.0000 R=    0.0000 C=    0.0000
 XYZ=    5.0716   -4.5424   -7.6042 Q=    0.4100 A=    0.0000 R=    0.0000 C=    0.0000
 XYZ=  -10.2438    4.0732    2.3293 Q=   -0.8200 A=    0.0000 R=    0.0000 C=    0.0000
 XYZ=  -11.2035    4.1688    2.0648 Q=    0.4100 A=    0.0000 R=    0.0000 C=    0.0000
 XYZ=  -10.0319    3.1062    2.4711 Q=    0.4100 A=    0.0000 R=    0.0000 C=    0.0000
 XYZ=    0.1081   -2.7573    9.9876 Q=   -0.8200 A=    0.0000 R=    0.0000 C=    0.0000
 XYZ=    0.6427   -3.3337    9.3695 Q=    0.4100 A=    0.0000 R=    0.0000 C=    0.0000
 XYZ=   -0.7046   -3.2561   10.2889 Q=    0.4100 A=    0.0000 R=    0.0000 C=    0.0000
 XYZ=    8.4659    7.1663   -1.5469 Q=   -0.8200 A=    0.0000 R=    0.0000 C=    0.0000
 XYZ=    7.6308    7.2812   -2.0850 Q=    0.4100 A=    0.0000 R=    0.0000 C=    0.0000
 XYZ=    8.2711    7.3562   -0.5846 Q=    0.4100 A=    0.0000 R=    0.0000 C=    0.0000
 XYZ=  -11.0795   -3.4949    2.8526 Q=   -0.8200 A=    0.0000 R=    0.0000 C=    0.0000
 XYZ=  -10.2265   -3.5485    3.3718 Q=    0.4100 A=    0.0000 R=    0.0000 C=    0.0000
 XYZ=  -11.1071   -4.2340    2.1796 Q=    0.4100 A=    0.0000 R=    0.0000 C=    0.0000
 XYZ=    7.5314   -6.8295   -1.0207 Q=   -0.8200 A=    0.0000 R=    0.0000 C=    0.0000
 XYZ=    8.2968   -7.3565   -0.6513 Q=    0.4100 A=    0.0000 R=    0.0000 C=    0.0000
 XYZ=    7.8827   -6.0851   -1.5887 Q=    0.4100 A=    0.0000 R=    0.0000 C=    0.0000
 XYZ=   -0.4133   -3.4310  -10.7647 Q=   -0.8200 A=    0.0000 R=    0.0000 C=    0.0000
 XYZ=    0.4632   -3.6459  -10.3340 Q=    0.4100 A=    0.0000 R=    0.0000 C=    0.0000
 XYZ=   -0.2912   -3.3680  -11.7553 Q=    0.4100 A=    0.0000 R=    0.0000 C=    0.0000
 XYZ=    4.8586   -1.6034  -10.2556 Q=   -0.8200 A=    0.0000 R=    0.0000 C=    0.0000
 XYZ=    4.8336   -1.3780   -9.2817 Q=    0.4100 A=    0.0000 R=    0.0000 C=    0.0000
 XYZ=    5.6243   -2.2212  -10.4352 Q=    0.4100 A=    0.0000 R=    0.0000 C=    0.0000
 XYZ=   -6.5464   -2.2146   -8.5900 Q=   -0.8200 A=    0.0000 R=    0.0000 C=    0.0000
 XYZ=   -7.3576   -1.6572   -8.7670 Q=    0.4100 A=    0.0000 R=    0.0000 C=    0.0000
 XYZ=   -6.4820   -2.9373   -9.2782 Q=    0.4100 A=    0.0000 R=    0.0000 C=    0.0000
 XYZ=  -11.7327   -1.2035   -4.0829 Q=   -0.8200 A=    0.0000 R=    0.0000 C=    0.0000
 XYZ=  -11.4798   -0.6562   -4.8808 Q=    0.4100 A=    0.0000 R=    0.0000 C=    0.0000
 XYZ=  -11.1991   -0.9052   -3.2915 Q=    0.4100 A=    0.0000 R=    0.0000 C=    0.0000
 XYZ=   -8.7130    4.6870   -6.0962 Q=   -0.8200 A=    0.0000 R=    0.0000 C=    0.0000
 XYZ=   -8.2461    4.3490   -6.9134 Q=    0.4100 A=    0.0000 R=    0.0000 C=    0.0000
 XYZ=   -8.5352    4.0683   -5.3309 Q=    0.4100 A=    0.0000 R=    0.0000 C=    0.0000
 XYZ=    7.7669    0.4302    7.9825 Q=   -0.8200 A=    0.0000 R=    0.0000 C=    0.0000
 XYZ=    7.2847    1.2472    7.6664 Q=    0.4100 A=    0.0000 R=    0.0000 C=    0.0000
 XYZ=    8.6708    0.6880    8.3240 Q=    0.4100 A=    0.0000 R=    0.0000 C=    0.0000
 XYZ=    0.7949    9.5875    3.2494 Q=   -0.8200 A=    0.0000 R=    0.0000 C=    0.0000
 XYZ=   -0.1956    9.6172    3.1146 Q=    0.4100 A=    0.0000 R=    0.0000 C=    0.0000
 XYZ=    1.0038    9.0535    4.0687 Q=    0.4100 A=    0.0000 R=    0.0000 C=    0.0000
 XYZ=   11.2174   -0.5985   -3.5850 Q=   -0.8200 A=    0.0000 R=    0.0000 C=    0.0000
 XYZ=   10.5893   -0.5755   -2.8071 Q=    0.4100 A=    0.0000 R=    0.0000 C=    0.0000
 XYZ=   12.1426   -0.7953   -3.2607 Q=    0.4100 A=    0.0000 R=    0.0000 C=    0.0000
 XYZ=    7.8695    7.8426    0.6447 Q=   -0.8200 A=    0.0000 R=    0.0000 C=    0.0000
 XYZ=    8.3569    8.6491    0.9793 Q=    0.4100 A=    0.0000 R=    0.0000 C=    0.0000
 XYZ=    7.6923    7.2201    1.4071 Q=    0.4100 A=    0.0000 R=    0.0000 C=    0.0000
 XYZ=   11.0269   -1.1313    0.1266 Q=   -0.8200 A=    0.0000 R=    0.0000 C=    0.0000
 XYZ=   11.5576   -1.9045    0.4737 Q=    0.4100 A=    0.0000 R=    0.0000 C=    0.0000
 XYZ=   10.7355   -0.5569    0.8916 Q=    0.4100 A=    0.0000 R=    0.0000 C=    0.0000
 XYZ=   -1.7845    5.5614    9.5327 Q=   -0.8200 A=    0.0000 R=    0.0000 C=    0.0000
 XYZ=   -1.8799    6.5259    9.2861 Q=    0.4100 A=    0.0000 R=    0.0000 C=    0.0000
 XYZ=   -1.5635    5.0288    8.7157 Q=    0.4100 A=    0.0000 R=    0.0000 C=    0.0000
 XYZ=    1.7717   -3.9373  -10.2205 Q=   -0.8200 A=    0.0000 R=    0.0000 C=    0.0000
 XYZ=    2.2222   -3.0708  -10.4357 Q=    0.4100 A=    0.0000 R=    0.0000 C=    0.0000
 XYZ=    2.4498   -4.6723  -10.2120 Q=    0.4100 A=    0.0000 R=    0.0000 C=    0.0000
 XYZ=   -2.9525    9.3796   -1.8848 Q=   -0.8200 A=    0.0000 R=    0.0000 C=    0.0000
 XYZ=   -3.3061   10.0327   -1.2152 Q=    0.4100 A=    0.0000 R=    0.0000 C=    0.0000
 XYZ=   -2.0078    9.1454   -1.6552 Q=    0.4100 A=    0.0000 R=    0.0000 C=    0.0000
 XYZ=   -6.5486   -5.7283    7.4522 Q=   -0.8200 A=    0.0000 R=    0.0000 C=    0.0000
 XYZ=   -6.8039   -5.8754    6.4966 Q=    0.4100 A=    0.0000 R=    0.0000 C=    0.0000
 XYZ=   -6.5512   -4.7482    7.6508 Q=    0.4100 A=    0.0000 R=    0.0000 C=    0.0000
 XYZ=  -11.6161    1.5355    3.6642 Q=   -0.8200 A=    0.0000 R=    0.0000 C=    0.0000
 XYZ=  -11.6880    2.3474    4.2436 Q=    0.4100 A=    0.0000 R=    0.0000 C=    0.0000
 XYZ=  -10.7216    1.5234    3.2171 Q=    0.4100 A=    0.0000 R=    0.0000 C=    0.0000
 XYZ=   -1.5335    9.5816    2.5012 Q=   -0.8200 A=    0.0000 R=    0.0000 C=    0.0000
 XYZ=   -2.1498    9.0259    3.0592 Q=    0.4100 A=    0.0000 R=    0.0000 C=    0.0000
 XYZ=   -2.0291   10.3743    2.1459 Q=    0.4100 A=    0.0000 R=    0.0000 C=    0.0000
 XYZ=    5.4706    5.3142    8.6407 Q=   -0.8200 A=    0.0000 R=    0.0000 C=    0.0000
 XYZ=    6.3197    5.7142    8.9858 Q=    0.4100 A=    0.0000 R=    0.0000 C=    0.0000
 XYZ=    5.4494    5.3865    7.6435 Q=    0.4100 A=    0.0000 R=    0.0000 C=    0.0000
 XYZ=    1.9188    3.5499  -10.9139 Q=   -0.8200 A=    0.0000 R=    0.0000 C=    0.0000
 XYZ=    1.3356    3.9417  -10.2022 Q=    0.4100 A=    0.0000 R=    0.0000 C=    0.0000
 XYZ=    2.8609    3.8570  -10.7792 Q=    0.4100 A=    0.0000 R=    0.0000 C=    0.0000
 XYZ=  -12.2958   -1.7275   -0.5636 Q=   -0.8200 A=    0.0000 R=    0.0000 C=    0.0000
 XYZ=  -11.8582   -1.1431   -1.2469 Q=    0.4100 A=    0.0000 R=    0.0000 C=    0.0000
 XYZ=  -11.8356   -1.6132    0.3168 Q=    0.4100 A=    0.0000 R=    0.0000 C=    0.0000
 XYZ=   -7.7582    3.8706   -7.9888 Q=   -0.8200 A=    0.0000 R=    0.0000 C=    0.0000
 XYZ=   -7.9394    4.7820   -8.3586 Q=    0.4100 A=    0.0000 R=    0.0000 C=    0.0000
 XYZ=   -6.7918    3.7972   -7.7423 Q=    0.4100 A=    0.0000 R=    0.0000 C=    0.0000
 XYZ=   -6.5292    1.8202    9.4031 Q=   -0.8200 A=    0.0000 R=    0.0000 C=    0.0000
 XYZ=   -6.8600    1.4357    8.5412 Q=    0.4100 A=    0.0000 R=    0.0000 C=    0.0000
 XYZ=   -6.0312    1.1179    9.9120 Q=    0.4100 A=    0.0000 R=    0.0000 C=    0.0000
 XYZ=   -8.5573   -9.1437    0.2577 Q=   -0.8200 A=    0.0000 R=    0.0000 C=    0.0000
 XYZ=   -9.1543   -8.5667   -0.2996 Q=    0.4100 A=    0.0000 R=    0.0000 C=    0.0000
 XYZ=   -7.7980   -8.5961    0.6093 Q=    0.4100 A=    0.0000 R=    0.0000 C=    0.0000
 XYZ=   -4.1765   -7.2074   -8.4712 Q=   -0.8200 A=    0.0000 R=    0.0000 C=    0.0000
 XYZ=   -3.4043   -7.5474   -9.0080 Q=    0.4100 A=    0.0000 R=    0.0000 C=    0.0000
 XYZ=   -3.9040   -7.1211   -7.5129 Q=    0.4100 A=    0.0000 R=    0.0000 C=    0.0000
 XYZ=   10.7919    4.2016    0.6769 Q=   -0.8200 A=    0.0000 R=    0.0000 C=    0.0000
 XYZ=   10.0312    4.4347    1.2827 Q=    0.4100 A=    0.0000 R=    0.0000 C=    0.0000
 XYZ=   11.3682    5.0074    0.5403 Q=    0.4100 A=    0.0000 R=    0.0000 C=    0.0000
 XYZ=   -4.9662    5.3640    8.1410 Q=   -0.8200 A=    0.0000 R=    0.0000 C=    0.0000
 XYZ=   -5.4717    6.2108    8.3069 Q=    0.4100 A=    0.0000 R=    0.0000 C=    0.0000
 XYZ=   -4.0327    5.5832    7.8572 Q=    0.4100 A=    0.0000 R=    0.0000 C=    0.0000
 XYZ=   10.5104    1.5710   -4.3219 Q=   -0.8200 A=    0.0000 R=    0.0000 C=    0.0000
 XYZ=   11.0335    2.2437   -3.7985 Q=    0.4100 A=    0.0000 R=    0.0000 C=    0.0000
 XYZ=   10.8468    0.6524   -4.1143 Q=    0.4100 A=    0.0000 R=    0.0000 C=    0.0000
 XYZ=    8.2316   -1.8787   -8.5718 Q=   -0.8200 A=    0.0000 R=    0.0000 C=    0.0000
 XYZ=    7.7969   -1.1078   -8.1062 Q=    0.4100 A=    0.0000 R=    0.0000 C=    0.0000
 XYZ=    7.9764   -2.7309   -8.1149 Q=    0.4100 A=    0.0000 R=    0.0000 C=    0.0000
 XYZ=    2.7882   -2.0183  -10.9733 Q=   -0.8200 A=    0.0000 R=    0.0000 C=    0.0000
 XYZ=    3.6546   -1.7610  -10.5454 Q=    0.4100 A=    0.0000 R=    0.0000 C=    0.0000
 XYZ=    2.8823   -1.9764  -11.9680 Q=    0.4100 A=    0.0000 R=    0.0000 C=    0.0000
 XYZ=   11.7116    2.1198    1.0119 Q=   -0.8200 A=    0.0000 R=    0.0000 C=    0.0000
 XYZ=   11.0334    1.4382    1.2866 Q=    0.4100 A=    0.0000 R=    0.0000 C=    0.0000
 XYZ=   11.2756    3.0177    0.9503 Q=    0.4100 A=    0.0000 R=    0.0000 C=    0.0000
 XYZ=   -4.1842   -0.0510  -10.8789 Q=   -0.8200 A=    0.0000 R=    0.0000 C=    0.0000
 XYZ=   -4.8630    0.6287  -10.6010 Q=    0.4100 A=    0.0000 R=    0.0000 C=    0.0000
 XYZ=   -4.6474   -0.8355  -11.2912 Q=    0.4100 A=    0.0000 R=    0.0000 C=    0.0000
 XYZ=    5.4356    3.1166    9.1790 Q=   -0.8200 A=    0.0000 R=    0.0000 C=    0.0000
 XYZ=    5.9986    2.9002    9.9766 Q=    0.4100 A=    0.0000 R=    0.0000 C=    0.0000
 XYZ=    5.4983    4.0950    8.9822 Q=    0.4100 A=    0.0000 R=    0.0000 C=    0.0000
 XYZ=   -1.2474   -9.6478   -6.7214 Q=   -0.8200 A=    0.0000 R=    0.0000 C=    0.0000
 XYZ=   -1.2351   -8.6490   -6.6750 Q=    0.4100 A=    0.0000 R=    0.0000 C=    0.0000
 XYZ=   -1.7166   -9.9369   -7.5559 Q=    0.4100 A=    0.0000 R=    0.0000 C=    0.0000
 XYZ=    3.9370   -7.1925   -7.3487 Q=   -0.8200 A=    0.0000 R=    0.0000 C=    0.0000
 XYZ=    4.3635   -6.3619   -7.7067 Q=    0.4100 A=    0.0000 R=    0.0000 C=    0.0000
 XYZ=    4.6284   -7.7514   -6.8909 Q=    0.4100 A=    0.0000 R=    0.0000 C=    0.0000
 XYZ=    1.9194    5.0447    9.8819 Q=   -0.8200 A=    0.0000 R=    0.0000 C=    0.0000
 XYZ=    1.1610    5.0514   10.5338 Q=    0.4100 A=    0.0000 R=    0.0000 C=    0.0000
 XYZ=    2.3418    4.1383    9.8715 Q=    0.4100 A=    0.0000 R=    0.0000 C=    0.0000
 XYZ=   -7.7648   -6.1142   -6.7439 Q=   -0.8200 A=    0.0000 R=    0.0000 C=    0.0000
 XYZ=   -8.5771   -5.5642   -6.9381 Q=    0.4100 A=    0.0000 R=    0.0000 C=    0.0000
 XYZ=   -7.9851   -6.8009   -6.0511 Q=    0.4100 A=    0.0000 R=    0.0000 C=    0.0000
 XYZ=   -3.0003  -11.1881   -1.8289 Q=   -0.8200 A=    0.0000 R=    0.0000 C=    0.0000
 XYZ=   -2.7333  -11.3040   -2.7856 Q=    0.4100 A=    0.0000 R=    0.0000 C=    0.0000
 XYZ=   -3.7121  -10.4887   -1.7639 Q=    0.4100 A=    0.0000 R=    0.0000 C=    0.0000
 XYZ=   -1.4962  -10.6022   -0.0941 Q=   -0.8200 A=    0.0000 R=    0.0000 C=    0.0000
 XYZ=   -1.0769  -11.3486    0.4227 Q=    0.4100 A=    0.0000 R=    0.0000 C=    0.0000
 XYZ=   -2.1076  -10.9804   -0.7893 Q=    0.4100 A=    0.0000 R=    0.0000 C=    0.0000
 XYZ=   -4.0289   -5.0362   -9.6946 Q=   -0.8200 A=    0.0000 R=    0.0000 C=    0.0000
 XYZ=   -3.2109   -5.0578  -10.2694 Q=    0.4100 A=    0.0000 R=    0.0000 C=    0.0000
 XYZ=   -4.2382   -5.9613   -9.3777 Q=    0.4100 A=    0.0000 R=    0.0000 C=    0.0000
 XYZ=    6.1257   -0.7191    9.4972 Q=   -0.8200 A=    0.0000 R=    0.0000 C=    0.0000
 XYZ=    6.7431   -0.1574    8.9464 Q=    0.4100 A=    0.0000 R=    0.0000 C=    0.0000
 XYZ=    6.6122   -1.5315    9.8190 Q=    0.4100 A=    0.0000 R=    0.0000 C=    0.0000
 XYZ=  -11.6655    2.1056   -2.0539 Q=   -0.8200 A=    0.0000 R=    0.0000 C=    0.0000
 XYZ=  -12.1351    2.5114   -2.8381 Q=    0.4100 A=    0.0000 R=    0.0000 C=    0.0000
 XYZ=  -12.2636    2.1396   -1.2532 Q=    0.4100 A=    0.0000 R=    0.0000 C=    0.0000
 XYZ=   -2.0154   -5.0086  -11.1454 Q=   -0.8200 A=    0.0000 R=    0.0000 C=    0.0000
 XYZ=   -2.2356   -4.8084  -12.1002 Q=    0.4100 A=    0.0000 R=    0.0000 C=    0.0000
 XYZ=   -1.3406   -4.3493  -10.8138 Q=    0.4100 A=    0.0000 R=    0.0000 C=    0.0000
 XYZ=    2.1907   -7.6990   -8.8236 Q=   -0.8200 A=    0.0000 R=    0.0000 C=    0.0000
 XYZ=    1.3291   -7.2587   -8.5708 Q=    0.4100 A=    0.0000 R=    0.0000 C=    0.0000
 XYZ=    2.8711   -7.5343   -8.1095 Q=    0.4100 A=    0.0000 R=    0.0000 C=    0.0000
 XYZ=   -4.2187  -10.1299    3.2674 Q=   -0.8200 A=    0.0000 R=    0.0000 C=    0.0000
 XYZ=   -4.3641  -10.9883    2.7755 Q=    0.4100 A=    0.0000 R=    0.0000 C=    0.0000
 XYZ=   -3.2424   -9.9133    3.2783 Q=    0.4100 A=    0.0000 R=    0.0000 C=    0.0000
 XYZ=   -4.4559   -6.2511    8.4353 Q=   -0.8200 A=    0.0000 R=    0.0000 C=    0.0000
 XYZ=   -4.4311   -7.0479    9.0392 Q=    0.4100 A=    0.0000 R=    0.0000 C=    0.0000
 XYZ=   -5.3599   -6.1808    8.0134 Q=    0.4100 A=    0.0000 R=    0.0000 C=    0.0000
 XYZ=    1.5938   11.2255   -0.0538 Q=   -0.8200 A=    0.0000 R=    0.0000 C=    0.0000
 XYZ=    2.5196   11.5990   -0.1131 Q=    0.4100 A=    0.0000 R=    0.0000 C=    0.0000
 XYZ=    1.5167   10.4291   -0.6536 Q=    0.4100 A=    0.0000 R=    0.0000 C=    0.0000
 XYZ=    2.0235    2.1053   11.3981 Q=   -0.8200 A=    0.0000 R=    0.0000 C=    0.0000
 XYZ=    2.6126    2.1854   10.5940 Q=    0.4100 A=    0.0000 R=    0.0000 C=    0.0000
 XYZ=    2.2470    1.2653   11.8926 Q=    0.4100 A=    0.0000 R=    0.0000 C=    0.0000
 XYZ=    7.7589   -4.0151   -7.2632 Q=   -0.8200 A=    0.0000 R=    0.0000 C=    0.0000
 XYZ=    8.4878   -4.4869   -6.7671 Q=    0.4100 A=    0.0000 R=    0.0000 C=    0.0000
 XYZ=    7.6355   -4.4416   -8.1593 Q=    0.4100 A=    0.0000 R=    0.0000 C=    0.0000
 XYZ=    0.1825    0.8604  -12.3643 Q=   -0.8200 A=    0.0000 R=    0.0000 C=    0.0000
 XYZ=    0.8420    0.4141  -11.7594 Q=    0.4100 A=    0.0000 R=    0.0000 C=    0.0000
 XYZ=   -0.7444    0.6921  -12.0287 Q=    0.4100 A=    0.0000 R=    0.0000 C=    0.0000
 XYZ=  -11.1811   -5.2463    1.2478 Q=   -0.8200 A=    0.0000 R=    0.0000 C=    0.0000
 XYZ=  -12.0207   -5.2833    0.7058 Q=    0.4100 A=    0.0000 R=    0.0000 C=    0.0000
 XYZ=  -11.0911   -6.0876    1.7808 Q=    0.4100 A=    0.0000 R=    0.0000 C=    0.0000
 XYZ=   -2.6919    5.8421   -9.5654 Q=   -0.8200 A=    0.0000 R=    0.0000 C=    0.0000
 XYZ=   -2.5432    6.8140   -9.7475 Q=    0.4100 A=    0.0000 R=    0.0000 C=    0.0000
 XYZ=   -3.6681    5.6745   -9.4271 Q=    0.4100 A=    0.0000 R=    0.0000 C=    0.0000
 XYZ=    8.1650    6.6345   -5.8929 Q=   -0.8200 A=    0.0000 R=    0.0000 C=    0.0000
 XYZ=    8.7405    6.1121   -5.2636 Q=    0.4100 A=    0.0000 R=    0.0000 C=    0.0000
 XYZ=    8.2678    6.2706   -6.8186 Q=    0.4100 A=    0.0000 R=    0.0000 C=    0.0000
 XYZ=    9.6387   -6.1276    1.6047 Q=   -0.8200 A=    0.0000 R=    0.0000 C=    0.0000
 XYZ=   10.0306   -5.2181    1.4655 Q=    0.4100 A=    0.0000 R=    0.0000 C=    0.0000
 XYZ=    8.6709   -6.0408    1.8407 Q=    0.4100 A=    0.0000 R=    0.0000 C=    0.0000
 XYZ=   11.8273    3.1465   -2.7972 Q=   -0.8200 A=    0.0000 R=    0.0000 C=    0.0000
 XYZ=   11.1421    3.5133   -2.1679 Q=    0.4100 A=    0.0000 R=    0.0000 C=    0.0000
 XYZ=   12.3835    2.4638   -2.3232 Q=    0.4100 A=    0.0000 R=    0.0000 C=    0.0000
 XYZ=   -0.5518   -6.9257  -10.5386 Q=   -0.8200 A=    0.0000 R=    0.0000 C=    0.0000
 XYZ=   -1.0351   -6.1665  -10.9746 Q=    0.4100 A=    0.0000 R=    0.0000 C=    0.0000
 XYZ=   -0.2922   -6.6655   -9.6086 Q=    0.4100 A=    0.0000 R=    0.0000 C=    0.0000
 XYZ=  -11.1504    0.1476   -6.1043 Q=   -0.8200 A=    0.0000 R=    0.0000 C=    0.0000
 XYZ=  -10.7526    1.0175   -5.8129 Q=    0.4100 A=    0.0000 R=    0.0000 C=    0.0000
 XYZ=  -12.1134    0.2830   -6.3375 Q=    0.4100 A=    0.0000 R=    0.0000 C=    0.0000
 XYZ=    8.6424    7.3996    4.3371 Q=   -0.8200 A=    0.0000 R=    0.0000 C=    0.0000
 XYZ=    9.2958    6.7137    4.6573 Q=    0.4100 A=    0.0000 R=    0.0000 C=    0.0000
 XYZ=    8.0757    7.0075    3.6124 Q=    0.4100 A=    0.0000 R=    0.0000 C=    0.0000
 XYZ=   -9.4556    1.8353    8.2618 Q=   -0.8200 A=    0.0000 R=    0.0000 C=    0.0000
 XYZ=   -9.3197    2.6116    8.8773 Q=    0.4100 A=    0.0000 R=    0.0000 C=    0.0000
 XYZ=   -8.5841    1.5903    7.8368 Q=    0.4100 A=    0.0000 R=    0.0000 C=    0.0000
 XYZ=    3.2042   -5.7997   -9.8064 Q=   -0.8200 A=    0.0000 R=    0.0000 C=    0.0000
 XYZ=    2.7271   -6.5657   -9.3755 Q=    0.4100 A=    0.0000 R=    0.0000 C=    0.0000
 XYZ=    4.0083   -5.5595   -9.2626 Q=    0.4100 A=    0.0000 R=    0.0000 C=    0.0000
 XYZ=   -6.0848    7.0272    5.9836 Q=   -0.8200 A=    0.0000 R=    0.0000 C=    0.0000
 XYZ=   -6.0874    7.9573    5.6162 Q=    0.4100 A=    0.0000 R=    0.0000 C=    0.0000
 XYZ=   -6.0360    7.0633    6.9818 Q=    0.4100 A=    0.0000 R=    0.0000 C=    0.0000
 XYZ=   -8.2548   -7.7827   -5.2558 Q=   -0.8200 A=    0.0000 R=    0.0000 C=    0.0000
 XYZ=   -7.5854   -8.4271   -4.8860 Q=    0.4100 A=    0.0000 R=    0.0000 C=    0.0000
 XYZ=   -9.1171   -8.2595   -5.4268 Q=    0.4100 A=    0.0000 R=    0.0000 C=    0.0000
 XYZ=   -9.7679    5.0212    4.6087 Q=   -0.8200 A=    0.0000 R=    0.0000 C=    0.0000
 XYZ=   -9.8144    4.8902    3.6184 Q=    0.4100 A=    0.0000 R=    0.0000 C=    0.0000
 XYZ=   -8.8430    5.3021    4.8647 Q=    0.4100 A=    0.0000 R=    0.0000 C=    0.0000
 XYZ=  -10.7621    2.3385   -5.4070 Q=   -0.8200 A=    0.0000 R=    0.0000 C=    0.0000
 XYZ=  -11.4896    2.7800   -4.8818 Q=    0.4100 A=    0.0000 R=    0.0000 C=    0.0000
 XYZ=  -10.7614    2.6958   -6.3410 Q=    0.4100 A=    0.0000 R=    0.0000 C=    0.0000
 XYZ=   -0.0544    2.8290   10.8726 Q=   -0.8200 A=    0.0000 R=    0.0000 C=    0.0000
 XYZ=    0.8806    2.5022   11.0110 Q=    0.4100 A=    0.0000 R=    0.0000 C=    0.0000
 XYZ=   -0.1012    3.8050   11.0853 Q=    0.4100 A=    0.0000 R=    0.0000 C=    0.0000
 XYZ=   -6.9216    8.8763    2.9519 Q=   -0.8200 A=    0.0000 R=    0.0000 C=    0.0000
 XYZ=   -7.0299    7.8873    2.8505 Q=    0.4100 A=    0.0000 R=    0.0000 C=    0.0000
 XYZ=   -6.7775    9.0987    3.9161 Q=    0.4100 A=    0.0000 R=    0.0000 C=    0.0000
 XYZ=   -4.9716    5.1186   -9.4034 Q=   -0.8200 A=    0.0000 R=    0.0000 C=    0.0000
 XYZ=   -5.2763    5.9524   -9.8638 Q=    0.4100 A=    0.0000 R=    0.0000 C=    0.0000
 XYZ=   -4.7946    4.4077  -10.0842 Q=    0.4100 A=    0.0000 R=    0.0000 C=    0.0000
 XYZ=    0.1547    6.2465  -10.9400 Q=   -0.8200 A=    0.0000 R=    0.0000 C=    0.0000
 XYZ=   -0.3678    5.5499  -11.4317 Q=    0.4100 A=    0.0000 R=    0.0000 C=    0.0000
 XYZ=    0.5272    5.8525  -10.0998 Q=    0.4100 A=    0.0000 R=    0.0000 C=    0.0000
 XYZ=   -2.4827    7.7035    8.6022 Q=   -0.8200 A=    0.0000 R=    0.0000 C=    0.0000
 XYZ=   -2.6086    7.1468    7.7811 Q=    0.4100 A=    0.0000 R=    0.0000 C=    0.0000
 XYZ=   -3.3469    8.1470    8.8399 Q=    0.4100 A=    0.0000 R=    0.0000 C=    0.0000
 XYZ=    0.1935   -7.1509    9.8575 Q=   -0.8200 A=    0.0000 R=    0.0000 C=    0.0000
 XYZ=   -0.0983   -6.8280    8.9571 Q=    0.4100 A=    0.0000 R=    0.0000 C=    0.0000
 XYZ=    0.9714   -6.6061   10.1709 Q=    0.4100 A=    0.0000 R=    0.0000 C=    0.0000
 XYZ=   -4.5350    3.5317  -10.9315 Q=   -0.8200 A=    0.0000 R=    0.0000 C=    0.0000
 XYZ=   -5.1734    2.7703  -10.8183 Q=    0.4100 A=    0.0000 R=    0.0000 C=    0.0000
 XYZ=   -3.6209    3.1745  -11.1238 Q=    0.4100 A=    0.0000 R=    0.0000 C=    0.0000
 XYZ=   -5.9390   -3.7505  -10.4456 Q=   -0.8200 A=    0.0000 R=    0.0000 C=    0.0000
 XYZ=   -5.1468   -4.2897  -10.1597 Q=    0.4100 A=    0.0000 R=    0.0000 C=    0.0000
 XYZ=   -6.6364   -4.3583  -10.8253 Q=    0.4100 A=    0.0000 R=    0.0000 C=    0.0000
 XYZ=   -5.9289    1.5971  -10.7652 Q=   -0.8200 A=    0.0000 R=    0.0000 C=    0.0000
 XYZ=   -6.6165    1.5690  -10.0396 Q=    0.4100 A=    0.0000 R=    0.0000 C=    0.0000
 XYZ=   -6.3598    1.3801  -11.6412 Q=    0.4100 A=    0.0000 R=    0.0000 C=    0.0000
 XYZ=   -7.9862    1.8246   -9.2741 Q=   -0.8200 A=    0.0000 R=    0.0000 C=    0.0000
 XYZ=   -8.6325    2.0847   -9.9915 Q=    0.4100 A=    0.0000 R=    0.0000 C=    0.0000
 XYZ=   -7.9421    2.5493   -8.5864 Q=    0.4100 A=    0.0000 R=    0.0000 C=    0.0000
 XYZ=   -8.1702   -0.4467   -9.1296 Q=   -0.8200 A=    0.0000 R=    0.0000 C=    0.0000
 XYZ=   -9.0895   -0.6335   -8.7832 Q=    0.4100 A=    0.0000 R=    0.0000 C=    0.0000
 XYZ=   -8.0359    0.5416   -9.2022 Q=    0.4100 A=    0.0000 R=    0.0000 C=    0.0000
 XYZ=    4.8187    0.3227   11.3813 Q=   -0.8200 A=    0.0000 R=    0.0000 C=    0.0000
 XYZ=    5.1364   -0.0855   10.5254 Q=    0.4100 A=    0.0000 R=    0.0000 C=    0.0000
 XYZ=    5.5826    0.7809   11.8357 Q=    0.4100 A=    0.0000 R=    0.0000 C=    0.0000
 XYZ=    1.3090   -1.5508   11.8520 Q=   -0.8200 A=    0.0000 R=    0.0000 C=    0.0000
 XYZ=    1.0074   -2.1252   11.0910 Q=    0.4100 A=    0.0000 R=    0.0000 C=    0.0000
 XYZ=    0.5217   -1.0720   12.2406 Q=    0.4100 A=    0.0000 R=    0.0000 C=    0.0000
 XYZ=   -7.9185   -9.6803    3.8505 Q=   -0.8200 A=    0.0000 R=    0.0000 C=    0.0000
 XYZ=   -7.6748  -10.1978    4.6708 Q=    0.4100 A=    0.0000 R=    0.0000 C=    0.0000
 XYZ=   -7.1022   -9.2348    3.4827 Q=    0.4100 A=    0.0000 R=    0.0000 C=    0.0000
 XYZ=   -4.8885   -9.8656    5.6128 Q=   -0.8200 A=    0.0000 R=    0.0000 C=    0.0000
 XYZ=   -4.6020   -9.9960    4.6636 Q=    0.4100 A=    0.0000 R=    0.0000 C=    0.0000
 XYZ=   -4.3769   -9.1059    6.0141 Q=    0.4100 A=    0.0000 R=    0.0000 C=    0.0000
[...]
    40  H    0.000000   0.000000   0.000000   0.000000   0.000000   0.002174
    41  H    0.000000   0.000000   0.000000   0.000000   0.000000  -0.013723
    42  O    0.002446   0.003284   0.000000   0.000000   0.000000   0.000000
    43  H    0.000009  -0.000193   0.000000   0.000000   0.000000   0.000000
    44  H   -0.000624  -0.000024   0.000000   0.000000   0.000000   0.000000
    45  O    0.000000   0.000000  -0.003521   0.000410   0.000002  -0.000146
    46  H    0.000000   0.000000   0.000356  -0.000062   0.000002   0.000001
    47  H    0.000000   0.000000   0.001262  -0.000045  -0.000060   0.000009
    48  O    0.000000   0.000000   0.000000   0.000000   0.000000   0.000000
    49  H    0.000000   0.000000   0.000000   0.000000   0.000000   0.000000
    50  H    0.000000   0.000000   0.000000   0.000000   0.000000   0.000000
              31         32         33         34         35         36
     1  C    0.000003   0.000187  -0.000131   0.000077   0.000020  -0.033562
     2  H    0.000000   0.000000   0.000000   0.000000   0.000000   0.000227
     3  H    0.000000   0.000000   0.000000   0.000000   0.000000  -0.000258
     4  C   -0.000171   0.000692   0.002296  -0.000574   0.000002   0.037325
     5  H    0.000000   0.000000   0.000000  -0.000001   0.000000   0.000181
     6  C    0.000056   0.000471  -0.004353   0.000637  -0.000168  -0.004925
     7  H    0.000000  -0.000003  -0.000311   0.000115   0.000007  -0.000015
     8  O   -0.000168   0.002815   0.000091   0.000008   0.000002  -0.000019
     9  O    0.001223   0.001706   0.000158  -0.000151   0.000000   0.000042
    10  H   -0.000042  -0.000498  -0.000002   0.000000   0.000000   0.000005
    11  H   -0.000132  -0.000580   0.000000   0.000000   0.000000   0.000000
    12  O   -0.000088  -0.000078   0.000000   0.000000   0.000000  -0.000676
    13  H    0.000002   0.000000   0.000000   0.000000   0.000000   0.000395
    14  H   -0.000017  -0.000004   0.000000   0.000000   0.000000   0.000144
    15  O   -0.000002  -0.000142   0.000666  -0.001725   0.000145   0.000000
    16  H    0.000000   0.000001  -0.000035   0.000014   0.000002   0.000000
    17  H   -0.000002  -0.000006  -0.000241   0.000025   0.000008   0.000000
    18  O    0.000000   0.000001  -0.061053   0.037541  -0.000263   0.000001
    19  H    0.000000   0.000000   0.002329  -0.000256   0.000020   0.000000
    20  H    0.000000   0.000000   0.001466  -0.001518  -0.000104   0.000000
    21  O    0.003367   0.047748   0.000000  -0.000001   0.000000   0.000000
    22  H   -0.000160  -0.003183  -0.000006   0.000000   0.000000   0.000000
    23  H   -0.000005   0.000929   0.000000   0.000000   0.000000   0.000000
    24  O    0.000000   0.000000  -0.067536  -0.000049   0.001018   0.000000
    25  H    0.000000   0.000000   0.019666   0.001042  -0.001160   0.000000
    26  H    0.000000   0.000000   0.001091  -0.000001  -0.000043   0.000000
    27  O   -0.000001  -0.000001   0.000000   0.000000   0.000000  -0.067998
    28  H    0.000000   0.000000   0.000000   0.000000   0.000000   0.000809
    29  H    0.000000   0.000000   0.000000   0.000000   0.000000   0.046760
    30  O    0.188670   0.110719   0.000000   0.000000   0.000000   0.000000
    31  H    0.149258  -0.001302   0.000000   0.000000   0.000000   0.000000
    32  H   -0.001302   0.220881   0.000000   0.000000   0.000000   0.000000
    33  O    0.000000   0.000000   9.010809   0.135901   0.207251   0.000000
    34  H    0.000000   0.000000   0.135901   0.187425  -0.003838   0.000000
    35  H    0.000000   0.000000   0.207251  -0.003838   0.204786   0.000000
    36  O    0.000000   0.000000   0.000000   0.000000   0.000000   8.686731
    37  H    0.000000   0.000000   0.000000   0.000000   0.000000   0.229879
    38  H    0.000000   0.000000   0.000000   0.000000   0.000000   0.223575
    39  O    0.001483   0.004376  -0.000004   0.000000   0.000000   0.000000
    40  H   -0.000041  -0.000085   0.000000   0.000000   0.000000   0.000000
    41  H    0.001687   0.006997   0.000000   0.000000   0.000000   0.000000
    42  O    0.000000   0.000000  -0.001882   0.000029  -0.000006   0.000000
    43  H    0.000000   0.000000   0.000054   0.000000   0.000000   0.000000
    44  H    0.000000   0.000000   0.000824   0.000006   0.000005   0.000000
    45  O    0.000011   0.000000   0.000000   0.000000   0.000000   0.000021
    46  H    0.000000   0.000000   0.000000   0.000000   0.000000  -0.000001
    47  H   -0.000005   0.000000   0.000000   0.000000   0.000000  -0.000015
    48  O    0.000000   0.000000   0.000000   0.000000   0.000000  -0.000012
    49  H    0.000000   0.000000   0.000000   0.000000   0.000000  -0.000007
    50  H    0.000000   0.000000   0.000000   0.000000   0.000000  -0.000001
              37         38         39         40         41         42
     1  C    0.001166  -0.001843  -0.000328   0.000007   0.000031  -0.000803
     2  H    0.000002  -0.000005   0.000001   0.000000   0.000000   0.000000
     3  H    0.000005   0.000008   0.000000   0.000000   0.000000   0.000000
     4  C   -0.000974   0.001228   0.003092  -0.000075   0.000184   0.000363
     5  H    0.000001  -0.000005   0.000000   0.000000   0.000000  -0.000033
     6  C   -0.000147   0.000138   0.001273  -0.000273  -0.000401  -0.000293
     7  H    0.000000   0.000000   0.000081   0.000000  -0.000001   0.000002
     8  O    0.000001   0.000016  -0.017161   0.000379   0.001601  -0.000001
     9  O    0.000000   0.000000  -0.151671   0.004781   0.017014  -0.000001
    10  H    0.000000   0.000000   0.000592  -0.000194  -0.001282   0.000000
    11  H    0.000000   0.000000   0.049799  -0.002837  -0.002844   0.000000
    12  O    0.000006   0.000013  -0.000126   0.000003  -0.000035   0.000000
    13  H    0.000029   0.000014   0.000000   0.000000   0.000000   0.000000
    14  H    0.000000  -0.000002  -0.000023   0.000000  -0.000006   0.000000
    15  O    0.000000   0.000000  -0.001448  -0.000095  -0.000079  -0.000001
    16  H    0.000000   0.000000  -0.000226   0.000001   0.000004   0.000000
    17  H    0.000000   0.000000   0.007579  -0.000071   0.000052   0.000000
    18  O    0.000000   0.000000  -0.000025  -0.000002   0.000000  -0.000012
    19  H    0.000000   0.000000   0.000016   0.000000   0.000000   0.000002
    20  H    0.000000   0.000000   0.000007   0.000001   0.000000   0.000000
    21  O    0.000000   0.000000  -0.012511   0.000142  -0.002729   0.000000
    22  H    0.000000   0.000000   0.002892   0.000004  -0.000600   0.000000
    23  H    0.000000   0.000000  -0.000263   0.000003   0.000081   0.000000
    24  O    0.000000   0.000000   0.000000   0.000000   0.000000  -0.083427
    25  H    0.000000   0.000000   0.000000   0.000000   0.000000   0.002446
    26  H    0.000000   0.000000   0.000000   0.000000   0.000000   0.003284
    27  O    0.003041   0.001623  -0.000004   0.000000   0.000000   0.000000
    28  H   -0.000081   0.000015   0.000000   0.000000   0.000000   0.000000
    29  H   -0.004652   0.001150   0.000000   0.000000   0.000000   0.000000
    30  O    0.000000   0.000000  -0.120321   0.002174  -0.013723   0.000000
    31  H    0.000000   0.000000   0.001483  -0.000041   0.001687   0.000000
    32  H    0.000000   0.000000   0.004376  -0.000085   0.006997   0.000000
    33  O    0.000000   0.000000  -0.000004   0.000000   0.000000  -0.001882
    34  H    0.000000   0.000000   0.000000   0.000000   0.000000   0.000029
    35  H    0.000000   0.000000   0.000000   0.000000   0.000000  -0.000006
    36  O    0.229879   0.223575   0.000000   0.000000   0.000000   0.000000
    37  H    0.232920  -0.008729   0.000000   0.000000   0.000000   0.000000
    38  H   -0.008729   0.175677   0.000000   0.000000   0.000000   0.000000
    39  O    0.000000   0.000000   8.991771   0.215874   0.148667   0.000000
    40  H    0.000000   0.000000   0.215874   0.194718  -0.003871   0.000000
    41  H    0.000000   0.000000   0.148667  -0.003871   0.237374   0.000000
    42  O    0.000000   0.000000   0.000000   0.000000   0.000000   8.832924
    43  H    0.000000   0.000000   0.000000   0.000000   0.000000   0.231267
    44  H    0.000000   0.000000   0.000000   0.000000   0.000000   0.156638
    45  O    0.000000   0.000000   0.000000   0.000000  -0.000001   0.000000
    46  H    0.000000   0.000000   0.000000   0.000000   0.000000   0.000000
    47  H    0.000000   0.000000   0.000001   0.000000   0.000000   0.000000
    48  O    0.000000   0.000001   0.000000   0.000000   0.000000   0.000323
    49  H    0.000000   0.000000   0.000000   0.000000   0.000000   0.000035
    50  H    0.000000   0.000000   0.000000   0.000000   0.000000  -0.000001
              43         44         45         46         47         48
     1  C    0.000060   0.000077   0.000211   0.000000   0.000075  -0.001294
     2  H    0.000000   0.000000   0.000001   0.000000   0.000005   0.000000
     3  H    0.000000   0.000000   0.000000   0.000000   0.000000  -0.000019
     4  C   -0.000052   0.000008  -0.000404   0.000015  -0.000097   0.000752
     5  H    0.000000   0.000000   0.000000   0.000000   0.000000  -0.000048
     6  C    0.000026  -0.000036  -0.000050   0.000004   0.000054   0.001941
     7  H    0.000000  -0.000001   0.000000   0.000000   0.000000   0.000000
     8  O    0.000000   0.000000   0.000033   0.000000   0.000007  -0.000001
     9  O    0.000000   0.000000  -0.000007   0.000000   0.000000   0.000000
    10  H    0.000000   0.000000  -0.000001   0.000000   0.000000   0.000000
    11  H    0.000000   0.000000   0.000000   0.000000   0.000000   0.000000
    12  O    0.000000   0.000000  -0.110324   0.003479   0.020651   0.000000
    13  H    0.000000   0.000000   0.005437  -0.000326   0.000443   0.000000
    14  H    0.000000   0.000000   0.005787  -0.000053   0.001093   0.000000
    15  O    0.000000   0.000000   0.000000   0.000000   0.000000   0.000000
    16  H    0.000000   0.000000   0.000000   0.000000   0.000000   0.000000
    17  H    0.000000   0.000000   0.000000   0.000000   0.000000   0.000000
    18  O    0.000000   0.000002   0.000000   0.000000   0.000000   0.000000
    19  H    0.000000   0.000000   0.000000   0.000000   0.000000   0.000000
    20  H    0.000000   0.000000   0.000000   0.000000   0.000000   0.000000
    21  O    0.000000   0.000000   0.000001   0.000000   0.000000   0.000000
    22  H    0.000000   0.000000   0.000000   0.000000   0.000000   0.000000
    23  H    0.000000   0.000000   0.000000   0.000000   0.000000   0.000000
    24  O    0.003233   0.042554   0.000000   0.000000   0.000000   0.000001
    25  H    0.000009  -0.000624   0.000000   0.000000   0.000000   0.000000
    26  H   -0.000193  -0.000024   0.000000   0.000000   0.000000   0.000000
    27  O    0.000000   0.000000  -0.003521   0.000356   0.001262   0.000000
    28  H    0.000000   0.000000   0.000410  -0.000062  -0.000045   0.000000
    29  H    0.000000   0.000000   0.000002   0.000002  -0.000060   0.000000
    30  O    0.000000   0.000000  -0.000146   0.000001   0.000009   0.000000
    31  H    0.000000   0.000000   0.000011   0.000000  -0.000005   0.000000
    32  H    0.000000   0.000000   0.000000   0.000000   0.000000   0.000000
    33  O    0.000054   0.000824   0.000000   0.000000   0.000000   0.000000
    34  H    0.000000   0.000006   0.000000   0.000000   0.000000   0.000000
    35  H    0.000000   0.000005   0.000000   0.000000   0.000000   0.000000
    36  O    0.000000   0.000000   0.000021  -0.000001  -0.000015  -0.000012
    37  H    0.000000   0.000000   0.000000   0.000000   0.000000   0.000000
    38  H    0.000000   0.000000   0.000000   0.000000   0.000000   0.000001
    39  O    0.000000   0.000000   0.000000   0.000000   0.000001   0.000000
    40  H    0.000000   0.000000   0.000000   0.000000   0.000000   0.000000
    41  H    0.000000   0.000000  -0.000001   0.000000   0.000000   0.000000
    42  O    0.231267   0.156638   0.000000   0.000000   0.000000   0.000323
    43  H    0.291065  -0.008810   0.000000   0.000000   0.000000   0.000036
    44  H   -0.008810   0.188492   0.000000   0.000000   0.000000  -0.000002
    45  O    0.000000   0.000000   9.035557   0.214763   0.153899   0.000000
    46  H    0.000000   0.000000   0.214763   0.159396  -0.003843   0.000000
    47  H    0.000000   0.000000   0.153899  -0.003843   0.192032   0.000000
    48  O    0.000036  -0.000002   0.000000   0.000000   0.000000   8.705780
    49  H   -0.000005   0.000000   0.000000   0.000000   0.000000   0.234765
    50  H    0.000000   0.000000   0.000000   0.000000   0.000000   0.200943
              49         50
     1  C   -0.002165   0.000344
     2  H    0.000000   0.000000
     3  H   -0.000005  -0.000002
     4  C    0.001568  -0.000336
     5  H   -0.000009   0.000001
     6  C    0.002483   0.000020
     7  H    0.000000   0.000000
     8  O    0.000000   0.000000
     9  O    0.000000   0.000000
    10  H    0.000000   0.000000
    11  H    0.000000   0.000000
    12  O    0.000000   0.000000
    13  H    0.000000   0.000000
    14  H    0.000000   0.000000
    15  O    0.000000   0.000000
    16  H    0.000000   0.000000
    17  H    0.000000   0.000000
    18  O    0.000000   0.000000
    19  H    0.000000   0.000000
    20  H    0.000000   0.000000
    21  O    0.000000   0.000000
    22  H    0.000000   0.000000
    23  H    0.000000   0.000000
    24  O   -0.000002   0.000000
    25  H    0.000000   0.000000
    26  H    0.000000   0.000000
    27  O    0.000000   0.000000
    28  H    0.000000   0.000000
    29  H    0.000000   0.000000
    30  O    0.000000   0.000000
    31  H    0.000000   0.000000
    32  H    0.000000   0.000000
    33  O    0.000000   0.000000
    34  H    0.000000   0.000000
    35  H    0.000000   0.000000
    36  O   -0.000007  -0.000001
    37  H    0.000000   0.000000
    38  H    0.000000   0.000000
    39  O    0.000000   0.000000
    40  H    0.000000   0.000000
    41  H    0.000000   0.000000
    42  O    0.000035  -0.000001
    43  H   -0.000005   0.000000
    44  H    0.000000   0.000000
    45  O    0.000000   0.000000
    46  H    0.000000   0.000000
    47  H    0.000000   0.000000
    48  O    0.234765   0.200943
    49  H    0.267388  -0.006894
    50  H   -0.006894   0.161981
 Mulliken charges:
               1
     1  C   -0.346160
     2  H    0.271005
     3  H    0.231399
     4  C   -0.106085
     5  H    0.244100
     6  C    0.056335
     7  H    0.224839
     8  O   -0.431131
     9  O   -1.543807
    10  H    0.610217
    11  H    0.635292
    12  O   -1.119682
    13  H    0.622598
    14  H    0.492692
    15  O   -1.241947
    16  H    0.642900
    17  H    0.659194
    18  O   -1.166721
    19  H    0.504736
    20  H    0.601413
    21  O   -1.162723
    22  H    0.641495
    23  H    0.639849
    24  O   -1.123583
    25  H    0.614107
    26  H    0.535050
    27  O   -1.208977
    28  H    0.622473
    29  H    0.600697
    30  O   -1.294959
    31  H    0.656377
    32  H    0.608358
    33  O   -1.247049
    34  H    0.645293
    35  H    0.592317
    36  O   -1.118609
    37  H    0.547531
    38  H    0.607125
    39  O   -1.123393
    40  H    0.589457
    41  H    0.611880
    42  O   -1.140853
    43  H    0.483309
    44  H    0.620891
    45  O   -1.301680
    46  H    0.626270
    47  H    0.634533
    48  O   -1.143168
    49  H    0.502847
    50  H    0.643946
 Sum of Mulliken charges =   0.00000
 Mulliken charges with hydrogens summed into heavy atoms:
               1
     1  C    0.156245
     4  C    0.138015
     6  C    0.281174
     8  O   -0.431131
     9  O   -0.298297
    12  O   -0.004392
    15  O    0.060147
    18  O   -0.060573
    21  O    0.118621
    24  O    0.025574
    27  O    0.014193
    30  O   -0.030224
    33  O   -0.009439
    36  O    0.036047
    39  O    0.077945
    42  O   -0.036652
    45  O   -0.040878
    48  O    0.003626
 Electronic spatial extent (au):  <R**2>=          13334.4768
 Charge=              0.0000 electrons
 Dipole moment (field-independent basis, Debye):
    X=              5.4913    Y=              4.7276    Z=             -4.4062  Tot=              8.4805
 Quadrupole moment (field-independent basis, Debye-Ang):
   XX=           -262.2323   YY=            -71.4420   ZZ=           -101.4307
   XY=             53.7817   XZ=             41.6132   YZ=             25.7502
 Traceless Quadrupole moment (field-independent basis, Debye-Ang):
   XX=           -117.1973   YY=             73.5930   ZZ=             43.6043
   XY=             53.7817   XZ=             41.6132   YZ=             25.7502
 Octapole moment (field-independent basis, Debye-Ang**2):
  XXX=             58.5003  YYY=             92.4226  ZZZ=             -4.8258  XYY=            292.3528
  XXY=           -193.2248  XXZ=           -163.0618  XZZ=             18.8875  YZZ=             18.5539
  YYZ=             -9.0646  XYZ=            -27.7568
 Hexadecapole moment (field-independent basis, Debye-Ang**3):
 XXXX=         -15521.6129 YYYY=          -4591.0427 ZZZZ=           -848.0811 XXXY=           1234.6913
 XXXZ=           1176.6159 YYYX=           2002.0794 YYYZ=            462.7553 ZZZX=            143.1845
 ZZZY=            215.1503 XXYY=          -2688.2381 XXZZ=          -1533.8249 YYZZ=           -746.2846
 XXYZ=             88.4774 YYXZ=            329.6937 ZZXY=            -57.2266
 N-N= 1.087742255387D+03 E-N=-6.141411709971D+03  KE= 1.250111642072D+03
 Leave Link  601 at Fri Sep 14 18:04:14 2018, MaxMem=    33554432 cpu:        20.5
 (Enter /usr/local/pacerepov1/gaussian/G09D01LINDA/g09/l9999.exe)

 Test job not archived.
 1\1\GINC-RICH133-B16-27-L\SP\RLC-wPBE TD-FC\6-31+G(d)\C3H32O15\ROOT\14
 -Sep-2018\0\\#p td=(nstates=15)/6-31+g(d) lc-wpbe charge\\Acroleina in
  Water\\0,1\C,0,0.485154,0.480443,-1.430142\H,0,1.461403,0.187773,-1.0
 55732\H,0,0.429244,0.878853,-2.437062\C,0,-0.605127,0.346563,-0.658432
 \H,0,-1.591686,0.632893,-1.012412\C,0,-0.508516,-0.199107,0.712798\H,0
 ,-1.458487,-0.272107,1.272438\O,0,0.544883,-0.561317,1.236519\O,0,0.10
 2561,-0.548737,3.135274\H,0,0.499181,-0.144487,2.311094\H,0,0.653991,-
 0.294317,3.929784\O,0,3.862952,1.821163,0.412014\H,0,3.527241,2.684553
 ,0.035284\H,0,3.193041,1.457013,1.059044\O,0,-1.899349,-1.101667,4.276
 774\H,0,-1.688149,-1.880087,4.867944\H,0,-1.120039,-0.916817,3.677994\
 O,0,-3.574819,0.314563,3.274994\H,0,-3.102259,1.089623,2.855434\H,0,-2
 .929368,-0.206767,3.833274\O,0,1.525141,-2.658177,2.778984\H,0,0.75723
 1,-2.022717,2.697994\H,0,1.181621,-3.568137,3.011224\O,0,-5.447469,-1.
 701907,-0.187126\H,0,-5.360299,-1.466067,0.780734\H,0,-5.297119,-2.683
 407,-0.305846\O,0,3.166862,3.759943,-0.611716\H,0,3.707681,4.305043,-1
 .252326\H,0,2.216111,3.729193,-0.920266\O,0,3.099282,-1.157697,3.44794
 4\H,0,3.996981,-1.215347,3.011044\H,0,2.477131,-1.812547,3.018844\O,0,
 -5.198749,-1.231827,2.244824\H,0,-4.472919,-0.624467,2.567834\H,0,-5.0
 59769,-2.147417,2.622314\O,0,0.803612,3.999203,-1.239576\H,0,1.038731,
 4.771423,-1.829836\H,0,-0.132909,4.107663,-0.906096\O,0,1.531741,-0.34
 3777,4.923544\H,0,1.908471,0.366693,5.517964\H,0,2.215811,-0.606127,4.
 242924\O,0,-6.269979,0.008093,-1.736086\H,0,-6.165819,-0.394737,-2.645
 436\H,0,-6.034139,-0.671617,-1.041486\O,0,6.172611,1.957223,0.170584\H
 ,0,6.323892,2.136983,-0.801446\H,0,5.193721,1.842423,0.339864\O,0,-3.4
 23189,1.901753,-5.145646\H,0,-3.327319,1.650383,-4.182476\H,0,-2.51745
 9,2.047293,-5.543836\\Version=EM64L-G09RevD.01\State=1-A\HF=-1758.8380
 043\RMSD=4.288e-09\PG=C01 [X(C3H32O15)]\\@


 SLITHERY-DITHERY
 FRIEDRICH A. KEKULE
 DREAMT ON A BUS OF THINGS
 FREUD WOULD THINK KEEN.
 MOST OF THE TIME THEY WERE
 HERPETOLOGICAL
 BITING THEIR TAILS IN THE
 SHAPE OF BENZENE.
 Job cpu time:       0 days  2 hours 36 minutes 49.9 seconds.
 File lengths (MBytes):  RWF=    792 Int=      0 D2E=      0 Chk=     96 Scr=      2
 Normal termination of Gaussian 09 at Fri Sep 14 18:04:21 2018.
