 Entering Gaussian System, Link 0=g09
 Input=Acroleina_water_15_37c.gjf
 Output=Acroleina_water_15_37c.log
 Initial command:
 /usr/local/pacerepov1/gaussian/G09D01LINDA/g09/l1.exe /nv/hp18/holiveira7/scratch/22411892/Gau-40008.inp -scrdir=/nv/hp18/holiveira7/scratch/22411892/
 Entering Link 1 = /usr/local/pacerepov1/gaussian/G09D01LINDA/g09/l1.exe PID=     40009.
  
 Copyright (c) 1988,1990,1992,1993,1995,1998,2003,2009,2013,
            Gaussian, Inc.  All Rights Reserved.
  
 This is part of the Gaussian(R) 09 program.  It is based on
 the Gaussian(R) 03 system (copyright 2003, Gaussian, Inc.),
 the Gaussian(R) 98 system (copyright 1998, Gaussian, Inc.),
 the Gaussian(R) 94 system (copyright 1995, Gaussian, Inc.),
 the Gaussian 92(TM) system (copyright 1992, Gaussian, Inc.),
 the Gaussian 90(TM) system (copyright 1990, Gaussian, Inc.),
 the Gaussian 88(TM) system (copyright 1988, Gaussian, Inc.),
 the Gaussian 86(TM) system (copyright 1986, Carnegie Mellon
 University), and the Gaussian 82(TM) system (copyright 1983,
 Carnegie Mellon University). Gaussian is a federally registered
 trademark of Gaussian, Inc.
  
 This software contains proprietary and confidential information,
 including trade secrets, belonging to Gaussian, Inc.
  
 This software is provided under written license and may be
 used, copied, transmitted, or stored only in accord with that
 written license.
  
 The following legend is applicable only to US Government
 contracts under FAR:
  
                    RESTRICTED RIGHTS LEGEND
  
 Use, reproduction and disclosure by the US Government is
 subject to restrictions as set forth in subparagraphs (a)
 and (c) of the Commercial Computer Software - Restricted
 Rights clause in FAR 52.227-19.
  
 Gaussian, Inc.
 340 Quinnipiac St., Bldg. 40, Wallingford CT 06492
  
  
 ---------------------------------------------------------------
 Warning -- This program may not be used in any manner that
 competes with the business of Gaussian, Inc. or will provide
 assistance to any competitor of Gaussian, Inc.  The licensee
 of this program is prohibited from giving any competitor of
 Gaussian, Inc. access to this program.  By using this program,
 the user acknowledges that Gaussian, Inc. is engaged in the
 business of creating and licensing software in the field of
 computational chemistry and represents and warrants to the
 licensee that it is not a competitor of Gaussian, Inc. and that
 it will not use this program in any manner prohibited above.
 ---------------------------------------------------------------
  

 Cite this work as:
 Gaussian 09, Revision D.01,
 M. J. Frisch, G. W. Trucks, H. B. Schlegel, G. E. Scuseria, 
 M. A. Robb, J. R. Cheeseman, G. Scalmani, V. Barone, B. Mennucci, 
 G. A. Petersson, H. Nakatsuji, M. Caricato, X. Li, H. P. Hratchian, 
 A. F. Izmaylov, J. Bloino, G. Zheng, J. L. Sonnenberg, M. Hada, 
 M. Ehara, K. Toyota, R. Fukuda, J. Hasegawa, M. Ishida, T. Nakajima, 
 Y. Honda, O. Kitao, H. Nakai, T. Vreven, J. A. Montgomery, Jr., 
 J. E. Peralta, F. Ogliaro, M. Bearpark, J. J. Heyd, E. Brothers, 
 K. N. Kudin, V. N. Staroverov, T. Keith, R. Kobayashi, J. Normand, 
 K. Raghavachari, A. Rendell, J. C. Burant, S. S. Iyengar, J. Tomasi, 
 M. Cossi, N. Rega, J. M. Millam, M. Klene, J. E. Knox, J. B. Cross, 
 V. Bakken, C. Adamo, J. Jaramillo, R. Gomperts, R. E. Stratmann, 
 O. Yazyev, A. J. Austin, R. Cammi, C. Pomelli, J. W. Ochterski, 
 R. L. Martin, K. Morokuma, V. G. Zakrzewski, G. A. Voth, 
 P. Salvador, J. J. Dannenberg, S. Dapprich, A. D. Daniels, 
 O. Farkas, J. B. Foresman, J. V. Ortiz, J. Cioslowski, 
 and D. J. Fox, Gaussian, Inc., Wallingford CT, 2013.
 
 ******************************************
 Gaussian 09:  EM64L-G09RevD.01 24-Apr-2013
                14-Sep-2018 
 ******************************************
 %chk=Acrolina_Din_37.chk
 %nprocshared=10
 Will use up to   10 processors via shared memory.
 -------------------------------------------
 #p td=(nstates=15)/6-31+g(d) lc-wpbe charge
 -------------------------------------------
 1/18=10,28=-2,38=1,125=101/1;
 2/12=2,17=6,18=5,40=1/2;
 3/5=1,6=6,7=11,11=9,16=1,25=1,30=1,74=-41/1,2,8,3;
 4//1;
 5/5=2,38=5/2;
 8/6=1,10=2,108=15/1;
 9/41=15,42=1,70=2/14;
 6/7=2,8=2,9=2,10=2/1;
 99/5=1,9=1/99;
 Leave Link    1 at Fri Sep 14 17:09:06 2018, MaxMem=           0 cpu:         1.5
 (Enter /usr/local/pacerepov1/gaussian/G09D01LINDA/g09/l101.exe)
 ------------------
 Acroleina in Water
 ------------------
 Symbolic Z-matrix:
 Charge =  0 Multiplicity = 1
 C                     0.48515   0.48044  -1.43014 
 H                     1.4614    0.18777  -1.05573 
 H                     0.42924   0.87885  -2.43706 
 C                    -0.60513   0.34656  -0.65843 
 H                    -1.59169   0.63289  -1.01241 
 C                    -0.50852  -0.19911   0.7128 
 H                    -1.45849  -0.27211   1.27244 
 O                     0.54488  -0.56132   1.23652 
 O                    -0.70403  -0.9448    3.4686 
 H                    -0.52582  -0.2412    2.78071 
 H                    -0.17733  -0.74423   4.29468 
 O                     2.25598   1.56275   1.6117 
 H                     2.17391   2.51385   1.31378 
 H                     1.34368   1.16983   1.72725 
 O                    -0.20528   3.75747  -0.58514 
 H                     0.08756   4.60811  -1.02182 
 H                    -1.20421   3.71088  -0.58256 
 O                     0.24555  -3.26459   2.84135 
 H                    -0.21129  -2.41609   2.57415 
 H                    -0.39276  -3.84001   3.35266 
 O                     2.0667   -4.52535   1.786 
 H                     1.50497  -3.77559   2.13586 
 H                     2.39074  -5.08351   2.54986 
 O                     1.9094    3.78307   0.44139 
 H                     2.51115   4.10279  -0.29051 
 H                     0.97503   3.70377   0.09391 
 O                    -2.74868  -1.71599   3.8165 
 H                    -2.78346  -2.06142   4.75433 
 H                    -1.8272   -1.38186   3.61836 
 O                    -2.99072   4.18602  -0.38823 
 H                    -3.89352   3.8181   -0.61105 
 H                    -2.94362   4.38324   0.59102 
 O                     4.00804  -3.45083  -3.96953 
 H                     4.80705  -3.33179  -3.38004 
 H                     3.59258  -2.55963  -4.15177 
 O                     1.86692  -2.3216    4.27642 
 H                     2.65635  -1.99649   3.75569 
 H                     1.20222  -2.73234   3.65233 
 O                     3.36074  -1.40044  -4.61225 
 H                     2.92578  -0.75187  -5.23695 
 H                     4.06685  -0.93052  -4.08252 
 O                     4.46029   1.3207    1.00574 
 H                     4.44483   1.29438   0.00618 
 H                     3.5253    1.40005   1.35153 
 O                     1.95409  -0.04605  -6.0851 
 H                     2.22696   0.54731  -6.84241 
 H                     1.25189   0.41146  -5.53959 
 O                     4.80006   1.36498  -1.50891 
 H                     4.57056   2.26115  -1.88877 
 H                     4.70903   0.66814  -2.22041 
 
 NAtoms=     50 NQM=       50 NQMF=       0 NMMI=      0 NMMIF=      0
                NMic=       0 NMicF=      0.
                    Isotopes and Nuclear Properties:
 (Nuclear quadrupole moments (NQMom) in fm**2, nuclear magnetic moments (NMagM)
  in nuclear magnetons)

  Atom         1           2           3           4           5           6           7           8           9          10
 IAtWgt=          12           1           1          12           1          12           1          16          16           1
 AtmWgt=  12.0000000   1.0078250   1.0078250  12.0000000   1.0078250  12.0000000   1.0078250  15.9949146  15.9949146   1.0078250
 NucSpn=           0           1           1           0           1           0           1           0           0           1
 AtZEff=   0.0000000   0.0000000   0.0000000   0.0000000   0.0000000   0.0000000   0.0000000   0.0000000   0.0000000   0.0000000
 NQMom=    0.0000000   0.0000000   0.0000000   0.0000000   0.0000000   0.0000000   0.0000000   0.0000000   0.0000000   0.0000000
 NMagM=    0.0000000   2.7928460   2.7928460   0.0000000   2.7928460   0.0000000   2.7928460   0.0000000   0.0000000   2.7928460
 AtZNuc=   6.0000000   1.0000000   1.0000000   6.0000000   1.0000000   6.0000000   1.0000000   8.0000000   8.0000000   1.0000000

  Atom        11          12          13          14          15          16          17          18          19          20
 IAtWgt=           1          16           1           1          16           1           1          16           1           1
 AtmWgt=   1.0078250  15.9949146   1.0078250   1.0078250  15.9949146   1.0078250   1.0078250  15.9949146   1.0078250   1.0078250
 NucSpn=           1           0           1           1           0           1           1           0           1           1
 AtZEff=   0.0000000   0.0000000   0.0000000   0.0000000   0.0000000   0.0000000   0.0000000   0.0000000   0.0000000   0.0000000
 NQMom=    0.0000000   0.0000000   0.0000000   0.0000000   0.0000000   0.0000000   0.0000000   0.0000000   0.0000000   0.0000000
 NMagM=    2.7928460   0.0000000   2.7928460   2.7928460   0.0000000   2.7928460   2.7928460   0.0000000   2.7928460   2.7928460
 AtZNuc=   1.0000000   8.0000000   1.0000000   1.0000000   8.0000000   1.0000000   1.0000000   8.0000000   1.0000000   1.0000000

  Atom        21          22          23          24          25          26          27          28          29          30
 IAtWgt=          16           1           1          16           1           1          16           1           1          16
 AtmWgt=  15.9949146   1.0078250   1.0078250  15.9949146   1.0078250   1.0078250  15.9949146   1.0078250   1.0078250  15.9949146
 NucSpn=           0           1           1           0           1           1           0           1           1           0
 AtZEff=   0.0000000   0.0000000   0.0000000   0.0000000   0.0000000   0.0000000   0.0000000   0.0000000   0.0000000   0.0000000
 NQMom=    0.0000000   0.0000000   0.0000000   0.0000000   0.0000000   0.0000000   0.0000000   0.0000000   0.0000000   0.0000000
 NMagM=    0.0000000   2.7928460   2.7928460   0.0000000   2.7928460   2.7928460   0.0000000   2.7928460   2.7928460   0.0000000
 AtZNuc=   8.0000000   1.0000000   1.0000000   8.0000000   1.0000000   1.0000000   8.0000000   1.0000000   1.0000000   8.0000000

  Atom        31          32          33          34          35          36          37          38          39          40
 IAtWgt=           1           1          16           1           1          16           1           1          16           1
 AtmWgt=   1.0078250   1.0078250  15.9949146   1.0078250   1.0078250  15.9949146   1.0078250   1.0078250  15.9949146   1.0078250
 NucSpn=           1           1           0           1           1           0           1           1           0           1
 AtZEff=   0.0000000   0.0000000   0.0000000   0.0000000   0.0000000   0.0000000   0.0000000   0.0000000   0.0000000   0.0000000
 NQMom=    0.0000000   0.0000000   0.0000000   0.0000000   0.0000000   0.0000000   0.0000000   0.0000000   0.0000000   0.0000000
 NMagM=    2.7928460   2.7928460   0.0000000   2.7928460   2.7928460   0.0000000   2.7928460   2.7928460   0.0000000   2.7928460
 AtZNuc=   1.0000000   1.0000000   8.0000000   1.0000000   1.0000000   8.0000000   1.0000000   1.0000000   8.0000000   1.0000000

  Atom        41          42          43          44          45          46          47          48          49          50
 IAtWgt=           1          16           1           1          16           1           1          16           1           1
 AtmWgt=   1.0078250  15.9949146   1.0078250   1.0078250  15.9949146   1.0078250   1.0078250  15.9949146   1.0078250   1.0078250
 NucSpn=           1           0           1           1           0           1           1           0           1           1
 AtZEff=   0.0000000   0.0000000   0.0000000   0.0000000   0.0000000   0.0000000   0.0000000   0.0000000   0.0000000   0.0000000
 NQMom=    0.0000000   0.0000000   0.0000000   0.0000000   0.0000000   0.0000000   0.0000000   0.0000000   0.0000000   0.0000000
 NMagM=    2.7928460   0.0000000   2.7928460   2.7928460   0.0000000   2.7928460   2.7928460   0.0000000   2.7928460   2.7928460
 AtZNuc=   1.0000000   8.0000000   1.0000000   1.0000000   8.0000000   1.0000000   1.0000000   8.0000000   1.0000000   1.0000000
 Background charge distribution read from input stream:
 Point Charges:
 XYZ=    5.0253   -0.6102   -3.1567 Q=   -0.8200 A=    0.0000 R=    0.0000 C=    0.0000
 XYZ=    5.7257   -0.2445   -3.7696 Q=    0.4100 A=    0.0000 R=    0.0000 C=    0.0000
 XYZ=    5.3501   -1.4650   -2.7518 Q=    0.4100 A=    0.0000 R=    0.0000 C=    0.0000
 XYZ=   -3.1390    4.6122    1.8836 Q=   -0.8200 A=    0.0000 R=    0.0000 C=    0.0000
 XYZ=   -4.1065    4.4117    1.7295 Q=    0.4100 A=    0.0000 R=    0.0000 C=    0.0000
 XYZ=   -2.7828    4.0078    2.5963 Q=    0.4100 A=    0.0000 R=    0.0000 C=    0.0000
 XYZ=   -2.2181    6.0600   -1.8253 Q=   -0.8200 A=    0.0000 R=    0.0000 C=    0.0000
 XYZ=   -2.4728    5.2108   -1.3627 Q=    0.4100 A=    0.0000 R=    0.0000 C=    0.0000
 XYZ=   -2.3386    6.8300   -1.1987 Q=    0.4100 A=    0.0000 R=    0.0000 C=    0.0000
 XYZ=    4.0536   -1.9161    3.5479 Q=   -0.8200 A=    0.0000 R=    0.0000 C=    0.0000
 XYZ=    4.2571   -0.9793    3.8326 Q=    0.4100 A=    0.0000 R=    0.0000 C=    0.0000
 XYZ=    4.4880   -2.0983    2.6658 Q=    0.4100 A=    0.0000 R=    0.0000 C=    0.0000
 XYZ=    3.9036   -5.3989    0.8140 Q=   -0.8200 A=    0.0000 R=    0.0000 C=    0.0000
 XYZ=    3.0593   -4.9747    1.1415 Q=    0.4100 A=    0.0000 R=    0.0000 C=    0.0000
 XYZ=    3.6809   -6.1292    0.1681 Q=    0.4100 A=    0.0000 R=    0.0000 C=    0.0000
 XYZ=    1.3981   -6.4181    0.4489 Q=   -0.8200 A=    0.0000 R=    0.0000 C=    0.0000
 XYZ=    1.5569   -5.4951    0.7994 Q=    0.4100 A=    0.0000 R=    0.0000 C=    0.0000
 XYZ=    2.2506   -6.7841    0.0757 Q=    0.4100 A=    0.0000 R=    0.0000 C=    0.0000
 XYZ=    0.4268   -0.8736    5.3929 Q=   -0.8200 A=    0.0000 R=    0.0000 C=    0.0000
 XYZ=    0.8672   -0.1493    5.9235 Q=    0.4100 A=    0.0000 R=    0.0000 C=    0.0000
 XYZ=    1.1149   -1.3529    4.8481 Q=    0.4100 A=    0.0000 R=    0.0000 C=    0.0000
 XYZ=    4.2538   -5.7600   -3.0389 Q=   -0.8200 A=    0.0000 R=    0.0000 C=    0.0000
 XYZ=    3.8882   -4.8478   -3.2243 Q=    0.4100 A=    0.0000 R=    0.0000 C=    0.0000
 XYZ=    4.2933   -6.2826   -3.8906 Q=    0.4100 A=    0.0000 R=    0.0000 C=    0.0000
 XYZ=    5.1411   -2.7389    1.7078 Q=   -0.8200 A=    0.0000 R=    0.0000 C=    0.0000
 XYZ=    5.2380   -3.1262    0.7909 Q=    0.4100 A=    0.0000 R=    0.0000 C=    0.0000
 XYZ=    5.6952   -3.2657    2.3523 Q=    0.4100 A=    0.0000 R=    0.0000 C=    0.0000
 XYZ=    6.0828   -0.3259    1.1846 Q=   -0.8200 A=    0.0000 R=    0.0000 C=    0.0000
 XYZ=    5.2660    0.2411    1.2910 Q=    0.4100 A=    0.0000 R=    0.0000 C=    0.0000
 XYZ=    5.8489   -1.2829    1.3563 Q=    0.4100 A=    0.0000 R=    0.0000 C=    0.0000
 XYZ=    5.3927   -4.0470   -0.4198 Q=   -0.8200 A=    0.0000 R=    0.0000 C=    0.0000
 XYZ=    4.6794   -4.6226   -0.0200 Q=    0.4100 A=    0.0000 R=    0.0000 C=    0.0000
 XYZ=    6.2494   -4.5609   -0.4650 Q=    0.4100 A=    0.0000 R=    0.0000 C=    0.0000
 XYZ=   -5.0051   -2.0418    2.9566 Q=   -0.8200 A=    0.0000 R=    0.0000 C=    0.0000
 XYZ=   -4.0088   -2.0681    3.0385 Q=    0.4100 A=    0.0000 R=    0.0000 C=    0.0000
 XYZ=   -5.3812   -2.9427    3.1735 Q=    0.4100 A=    0.0000 R=    0.0000 C=    0.0000
 XYZ=    6.0482   -2.4971   -2.2337 Q=   -0.8200 A=    0.0000 R=    0.0000 C=    0.0000
 XYZ=    6.7365   -1.8559   -1.8941 Q=    0.4100 A=    0.0000 R=    0.0000 C=    0.0000
 XYZ=    5.8844   -3.2050   -1.5466 Q=    0.4100 A=    0.0000 R=    0.0000 C=    0.0000
 XYZ=   -5.7870    3.0381   -0.8325 Q=   -0.8200 A=    0.0000 R=    0.0000 C=    0.0000
 XYZ=   -6.1971    3.7968   -0.3263 Q=    0.4100 A=    0.0000 R=    0.0000 C=    0.0000
 XYZ=   -6.3976    2.2468   -0.7996 Q=    0.4100 A=    0.0000 R=    0.0000 C=    0.0000
 XYZ=   -5.1932    1.1652   -4.5340 Q=   -0.8200 A=    0.0000 R=    0.0000 C=    0.0000
 XYZ=   -4.8930    0.8774   -3.6245 Q=    0.4100 A=    0.0000 R=    0.0000 C=    0.0000
 XYZ=   -4.4432    1.6357   -4.9991 Q=    0.4100 A=    0.0000 R=    0.0000 C=    0.0000
 XYZ=    2.3143    5.4195    2.1424 Q=   -0.8200 A=    0.0000 R=    0.0000 C=    0.0000
 XYZ=    2.3121    4.5994    1.5702 Q=    0.4100 A=    0.0000 R=    0.0000 C=    0.0000
 XYZ=    1.9827    6.1983    1.6099 Q=    0.4100 A=    0.0000 R=    0.0000 C=    0.0000
 XYZ=    0.9881    5.8164   -1.4781 Q=   -0.8200 A=    0.0000 R=    0.0000 C=    0.0000
 XYZ=    1.9514    5.6294   -1.6706 Q=    0.4100 A=    0.0000 R=    0.0000 C=    0.0000
 XYZ=    0.5834    6.3079   -2.2493 Q=    0.4100 A=    0.0000 R=    0.0000 C=    0.0000
 XYZ=   -3.3198    2.3628   -5.3197 Q=   -0.8200 A=    0.0000 R=    0.0000 C=    0.0000
 XYZ=   -3.0047    3.2504   -4.9835 Q=    0.4100 A=    0.0000 R=    0.0000 C=    0.0000
 XYZ=   -3.3962    2.3919   -6.3163 Q=    0.4100 A=    0.0000 R=    0.0000 C=    0.0000
 XYZ=    3.8970   -4.0530   -6.3616 Q=   -0.8200 A=    0.0000 R=    0.0000 C=    0.0000
 XYZ=    3.9811   -3.7815   -5.4028 Q=    0.4100 A=    0.0000 R=    0.0000 C=    0.0000
 XYZ=    4.7348   -4.5157   -6.6516 Q=    0.4100 A=    0.0000 R=    0.0000 C=    0.0000
 XYZ=   -5.4578    4.2618   -2.7573 Q=   -0.8200 A=    0.0000 R=    0.0000 C=    0.0000
 XYZ=   -5.5817    3.8009   -1.8785 Q=    0.4100 A=    0.0000 R=    0.0000 C=    0.0000
 XYZ=   -6.0720    3.8576   -3.4351 Q=    0.4100 A=    0.0000 R=    0.0000 C=    0.0000
 XYZ=   -0.8306   -2.4878    6.6426 Q=   -0.8200 A=    0.0000 R=    0.0000 C=    0.0000
 XYZ=   -0.4379   -1.8253    6.0047 Q=    0.4100 A=    0.0000 R=    0.0000 C=    0.0000
 XYZ=   -1.6956   -2.8309    6.2762 Q=    0.4100 A=    0.0000 R=    0.0000 C=    0.0000
 XYZ=   -5.4278    3.8588    1.8270 Q=   -0.8200 A=    0.0000 R=    0.0000 C=    0.0000
 XYZ=   -6.0617    4.4669    1.3491 Q=    0.4100 A=    0.0000 R=    0.0000 C=    0.0000
 XYZ=   -5.6588    3.8344    2.7997 Q=    0.4100 A=    0.0000 R=    0.0000 C=    0.0000
 XYZ=    6.7428    1.0694   -0.5772 Q=   -0.8200 A=    0.0000 R=    0.0000 C=    0.0000
 XYZ=    5.9417    1.2549   -1.1463 Q=    0.4100 A=    0.0000 R=    0.0000 C=    0.0000
 XYZ=    6.4773    0.4899    0.1933 Q=    0.4100 A=    0.0000 R=    0.0000 C=    0.0000
 XYZ=   -5.1066   -0.6158    4.8845 Q=   -0.8200 A=    0.0000 R=    0.0000 C=    0.0000
 XYZ=   -4.2537   -0.0957    4.9300 Q=    0.4100 A=    0.0000 R=    0.0000 C=    0.0000
 XYZ=   -5.0639   -1.2598    4.1206 Q=    0.4100 A=    0.0000 R=    0.0000 C=    0.0000
 XYZ=   -2.6240    4.6472   -4.6193 Q=   -0.8200 A=    0.0000 R=    0.0000 C=    0.0000
 XYZ=   -1.7354    4.8409   -4.2036 Q=    0.4100 A=    0.0000 R=    0.0000 C=    0.0000
 XYZ=   -3.3262    5.2089   -4.1817 Q=    0.4100 A=    0.0000 R=    0.0000 C=    0.0000
 XYZ=    3.4477   -6.8432   -0.8762 Q=   -0.8200 A=    0.0000 R=    0.0000 C=    0.0000
 XYZ=    4.2345   -7.4511   -0.7688 Q=    0.4100 A=    0.0000 R=    0.0000 C=    0.0000
 XYZ=    3.4324   -6.4792   -1.8075 Q=    0.4100 A=    0.0000 R=    0.0000 C=    0.0000
 XYZ=   -2.3878    6.9617    1.6716 Q=   -0.8200 A=    0.0000 R=    0.0000 C=    0.0000
 XYZ=   -2.6621    7.6950    2.2937 Q=    0.4100 A=    0.0000 R=    0.0000 C=    0.0000
 XYZ=   -2.9841    6.1703    1.8059 Q=    0.4100 A=    0.0000 R=    0.0000 C=    0.0000
 XYZ=    5.5533    2.9220    2.2774 Q=   -0.8200 A=    0.0000 R=    0.0000 C=    0.0000
 XYZ=    4.9628    3.6460    2.6339 Q=    0.4100 A=    0.0000 R=    0.0000 C=    0.0000
 XYZ=    5.0295    2.3417    1.6538 Q=    0.4100 A=    0.0000 R=    0.0000 C=    0.0000
 XYZ=    3.3438   -1.8717   -7.3699 Q=   -0.8200 A=    0.0000 R=    0.0000 C=    0.0000
 XYZ=    3.4579   -2.8204   -7.0751 Q=    0.4100 A=    0.0000 R=    0.0000 C=    0.0000
 XYZ=    2.5725   -1.4618   -6.8828 Q=    0.4100 A=    0.0000 R=    0.0000 C=    0.0000
 XYZ=    1.5191    7.1598    0.4549 Q=   -0.8200 A=    0.0000 R=    0.0000 C=    0.0000
 XYZ=    0.8157    7.3937    1.1261 Q=    0.4100 A=    0.0000 R=    0.0000 C=    0.0000
 XYZ=    1.1924    6.4121   -0.1234 Q=    0.4100 A=    0.0000 R=    0.0000 C=    0.0000
 XYZ=    2.8712   -3.1885    6.3875 Q=   -0.8200 A=    0.0000 R=    0.0000 C=    0.0000
 XYZ=    2.5242   -2.8253    5.5228 Q=    0.4100 A=    0.0000 R=    0.0000 C=    0.0000
 XYZ=    2.9912   -2.4396    7.0393 Q=    0.4100 A=    0.0000 R=    0.0000 C=    0.0000
 XYZ=    3.1259    4.8058   -1.3294 Q=   -0.8200 A=    0.0000 R=    0.0000 C=    0.0000
 XYZ=    3.6205    5.5559   -0.8903 Q=    0.4100 A=    0.0000 R=    0.0000 C=    0.0000
 XYZ=    3.7492    4.2995   -1.9254 Q=    0.4100 A=    0.0000 R=    0.0000 C=    0.0000
 XYZ=   -0.1993    6.5672   -3.2447 Q=   -0.8200 A=    0.0000 R=    0.0000 C=    0.0000
 XYZ=   -1.0039    6.4243   -2.6682 Q=    0.4100 A=    0.0000 R=    0.0000 C=    0.0000
 XYZ=   -0.2640    5.9873   -4.0569 Q=    0.4100 A=    0.0000 R=    0.0000 C=    0.0000
 XYZ=   -1.2646   -4.7751    4.0203 Q=   -0.8200 A=    0.0000 R=    0.0000 C=    0.0000
 XYZ=   -1.6547   -5.5121    3.4683 Q=    0.4100 A=    0.0000 R=    0.0000 C=    0.0000
 XYZ=   -0.4240   -5.0953    4.4573 Q=    0.4100 A=    0.0000 R=    0.0000 C=    0.0000
 XYZ=    5.0418   -3.3953    5.1119 Q=   -0.8200 A=    0.0000 R=    0.0000 C=    0.0000
 XYZ=    4.7208   -2.7374    4.4306 Q=    0.4100 A=    0.0000 R=    0.0000 C=    0.0000
 XYZ=    4.3070   -3.5862    5.7629 Q=    0.4100 A=    0.0000 R=    0.0000 C=    0.0000
 XYZ=    2.1612    4.5455   -5.8248 Q=   -0.8200 A=    0.0000 R=    0.0000 C=    0.0000
 XYZ=    2.7188    3.8760   -5.3340 Q=    0.4100 A=    0.0000 R=    0.0000 C=    0.0000
 XYZ=    2.7469    5.2805   -6.1666 Q=    0.4100 A=    0.0000 R=    0.0000 C=    0.0000
 XYZ=    4.6370    0.3066    4.6218 Q=   -0.8200 A=    0.0000 R=    0.0000 C=    0.0000
 XYZ=    4.8167   -0.1252    5.5057 Q=    0.4100 A=    0.0000 R=    0.0000 C=    0.0000
 XYZ=    4.0724    1.1208    4.7573 Q=    0.4100 A=    0.0000 R=    0.0000 C=    0.0000
 XYZ=    0.0579    5.0995   -5.0972 Q=   -0.8200 A=    0.0000 R=    0.0000 C=    0.0000
 XYZ=   -0.6170    5.1128   -5.8350 Q=    0.4100 A=    0.0000 R=    0.0000 C=    0.0000
 XYZ=    0.9288    4.7556   -5.4485 Q=    0.4100 A=    0.0000 R=    0.0000 C=    0.0000
 XYZ=   -7.3569    2.1662    1.6395 Q=   -0.8200 A=    0.0000 R=    0.0000 C=    0.0000
 XYZ=   -6.5684    2.7803    1.6736 Q=    0.4100 A=    0.0000 R=    0.0000 C=    0.0000
 XYZ=   -7.3698    1.6888    0.7609 Q=    0.4100 A=    0.0000 R=    0.0000 C=    0.0000
 XYZ=   -4.0925    5.9623   -3.3724 Q=   -0.8200 A=    0.0000 R=    0.0000 C=    0.0000
 XYZ=   -3.4516    6.2087   -2.6454 Q=    0.4100 A=    0.0000 R=    0.0000 C=    0.0000
 XYZ=   -4.6607    5.1968   -3.0705 Q=    0.4100 A=    0.0000 R=    0.0000 C=    0.0000
 XYZ=    2.3011   -6.0723    3.5411 Q=   -0.8200 A=    0.0000 R=    0.0000 C=    0.0000
 XYZ=    1.6944   -5.6993    4.2430 Q=    0.4100 A=    0.0000 R=    0.0000 C=    0.0000
 XYZ=    1.8138   -6.7699    3.0157 Q=    0.4100 A=    0.0000 R=    0.0000 C=    0.0000
 XYZ=    4.7408    3.5465   -2.5964 Q=   -0.8200 A=    0.0000 R=    0.0000 C=    0.0000
 XYZ=    5.5053    3.9899   -2.1284 Q=    0.4100 A=    0.0000 R=    0.0000 C=    0.0000
 XYZ=    4.8179    3.7015   -3.5813 Q=    0.4100 A=    0.0000 R=    0.0000 C=    0.0000
 XYZ=   -0.8995   -7.2913    1.0324 Q=   -0.8200 A=    0.0000 R=    0.0000 C=    0.0000
 XYZ=   -0.0553   -7.0589    0.5492 Q=    0.4100 A=    0.0000 R=    0.0000 C=    0.0000
 XYZ=   -1.4173   -7.9583    0.4967 Q=    0.4100 A=    0.0000 R=    0.0000 C=    0.0000
 XYZ=    4.7991   -6.2779    2.7305 Q=   -0.8200 A=    0.0000 R=    0.0000 C=    0.0000
 XYZ=    4.4216   -5.9949    1.8487 Q=    0.4100 A=    0.0000 R=    0.0000 C=    0.0000
 XYZ=    4.0641   -6.3296    3.4066 Q=    0.4100 A=    0.0000 R=    0.0000 C=    0.0000
 XYZ=   -0.0757    7.5534    2.0987 Q=   -0.8200 A=    0.0000 R=    0.0000 C=    0.0000
 XYZ=   -0.3277    8.2812    2.7366 Q=    0.4100 A=    0.0000 R=    0.0000 C=    0.0000
 XYZ=   -0.8902    7.0263    1.8559 Q=    0.4100 A=    0.0000 R=    0.0000 C=    0.0000
 XYZ=    0.9590    6.3210    3.9877 Q=   -0.8200 A=    0.0000 R=    0.0000 C=    0.0000
 XYZ=    0.4036    6.9693    3.4670 Q=    0.4100 A=    0.0000 R=    0.0000 C=    0.0000
 XYZ=    1.4344    5.7075    3.3570 Q=    0.4100 A=    0.0000 R=    0.0000 C=    0.0000
 XYZ=    1.6510    0.4660    7.0601 Q=   -0.8200 A=    0.0000 R=    0.0000 C=    0.0000
 XYZ=    2.1721   -0.2488    7.5265 Q=    0.4100 A=    0.0000 R=    0.0000 C=    0.0000
 XYZ=    2.2807    1.1446    6.6821 Q=    0.4100 A=    0.0000 R=    0.0000 C=    0.0000
 XYZ=    7.6307   -1.0473   -0.9776 Q=   -0.8200 A=    0.0000 R=    0.0000 C=    0.0000
 XYZ=    7.4034   -0.0794   -0.8700 Q=    0.4100 A=    0.0000 R=    0.0000 C=    0.0000
 XYZ=    8.1770   -1.3501   -0.1966 Q=    0.4100 A=    0.0000 R=    0.0000 C=    0.0000
 XYZ=   -2.0959   -6.4604    2.8032 Q=   -0.8200 A=    0.0000 R=    0.0000 C=    0.0000
 XYZ=   -1.5749   -6.5609    1.9556 Q=    0.4100 A=    0.0000 R=    0.0000 C=    0.0000
 XYZ=   -3.0721   -6.5535    2.6074 Q=    0.4100 A=    0.0000 R=    0.0000 C=    0.0000
 XYZ=    6.2134   -6.5840   -2.0630 Q=   -0.8200 A=    0.0000 R=    0.0000 C=    0.0000
 XYZ=    5.4498   -6.1305   -2.5226 Q=    0.4100 A=    0.0000 R=    0.0000 C=    0.0000
 XYZ=    6.9922   -6.6406   -2.6878 Q=    0.4100 A=    0.0000 R=    0.0000 C=    0.0000
 XYZ=    7.9789   -2.0642   -4.1520 Q=   -0.8200 A=    0.0000 R=    0.0000 C=    0.0000
 XYZ=    8.6527   -1.7138   -3.5014 Q=    0.4100 A=    0.0000 R=    0.0000 C=    0.0000
 XYZ=    7.2394   -2.5175   -3.6542 Q=    0.4100 A=    0.0000 R=    0.0000 C=    0.0000
 XYZ=   -2.3730    8.0462   -0.4481 Q=   -0.8200 A=    0.0000 R=    0.0000 C=    0.0000
 XYZ=   -1.5348    8.5911   -0.4718 Q=    0.4100 A=    0.0000 R=    0.0000 C=    0.0000
 XYZ=   -2.4196    7.5436    0.4151 Q=    0.4100 A=    0.0000 R=    0.0000 C=    0.0000
 XYZ=   -7.5092    1.4079   -0.6629 Q=   -0.8200 A=    0.0000 R=    0.0000 C=    0.0000
 XYZ=   -7.7410    0.4351   -0.6715 Q=    0.4100 A=    0.0000 R=    0.0000 C=    0.0000
 XYZ=   -7.8724    1.8442   -1.4861 Q=    0.4100 A=    0.0000 R=    0.0000 C=    0.0000
 XYZ=   -1.7838    5.1842   -6.7053 Q=   -0.8200 A=    0.0000 R=    0.0000 C=    0.0000
 XYZ=   -2.0702    4.7533   -5.8496 Q=    0.4100 A=    0.0000 R=    0.0000 C=    0.0000
 XYZ=   -2.5866    5.3595   -7.2752 Q=    0.4100 A=    0.0000 R=    0.0000 C=    0.0000
 XYZ=    7.9752    0.0355    2.3679 Q=   -0.8200 A=    0.0000 R=    0.0000 C=    0.0000
 XYZ=    7.7272    0.3830    3.2722 Q=    0.4100 A=    0.0000 R=    0.0000 C=    0.0000
 XYZ=    7.1455   -0.1206    1.8318 Q=    0.4100 A=    0.0000 R=    0.0000 C=    0.0000
 XYZ=    3.4430    1.7986    6.0246 Q=   -0.8200 A=    0.0000 R=    0.0000 C=    0.0000
 XYZ=    3.9294    1.6617    6.8876 Q=    0.4100 A=    0.0000 R=    0.0000 C=    0.0000
 XYZ=    3.5128    2.7579    5.7512 Q=    0.4100 A=    0.0000 R=    0.0000 C=    0.0000
 XYZ=    6.5537   -0.4425   -5.1144 Q=   -0.8200 A=    0.0000 R=    0.0000 C=    0.0000
 XYZ=    7.0206    0.4412   -5.0782 Q=    0.4100 A=    0.0000 R=    0.0000 C=    0.0000
 XYZ=    7.2040   -1.1720   -4.9026 Q=    0.4100 A=    0.0000 R=    0.0000 C=    0.0000
 XYZ=    4.2542    4.7239    3.0780 Q=   -0.8200 A=    0.0000 R=    0.0000 C=    0.0000
 XYZ=    3.9835    4.3513    3.9656 Q=    0.4100 A=    0.0000 R=    0.0000 C=    0.0000
 XYZ=    3.4738    5.1885    2.6595 Q=    0.4100 A=    0.0000 R=    0.0000 C=    0.0000
 XYZ=   -2.9820   -3.0824    6.0128 Q=   -0.8200 A=    0.0000 R=    0.0000 C=    0.0000
 XYZ=   -3.6462   -2.9324    6.7451 Q=    0.4100 A=    0.0000 R=    0.0000 C=    0.0000
 XYZ=   -2.8652   -4.0646    5.8649 Q=    0.4100 A=    0.0000 R=    0.0000 C=    0.0000
 XYZ=    5.5208   -1.0312   -7.0951 Q=   -0.8200 A=    0.0000 R=    0.0000 C=    0.0000
 XYZ=    5.7990   -0.8695   -6.1482 Q=    0.4100 A=    0.0000 R=    0.0000 C=    0.0000
 XYZ=    4.5426   -1.2367   -7.1246 Q=    0.4100 A=    0.0000 R=    0.0000 C=    0.0000
 XYZ=   -6.7044    4.8578    0.1286 Q=   -0.8200 A=    0.0000 R=    0.0000 C=    0.0000
 XYZ=   -6.6415    5.8538    0.0654 Q=    0.4100 A=    0.0000 R=    0.0000 C=    0.0000
 XYZ=   -7.4223    4.5296   -0.4854 Q=    0.4100 A=    0.0000 R=    0.0000 C=    0.0000
 XYZ=   -7.1957   -2.2944    1.4854 Q=   -0.8200 A=    0.0000 R=    0.0000 C=    0.0000
 XYZ=   -6.3564   -2.0761    1.9834 Q=    0.4100 A=    0.0000 R=    0.0000 C=    0.0000
 XYZ=   -7.3420   -3.2836    1.4965 Q=    0.4100 A=    0.0000 R=    0.0000 C=    0.0000
 XYZ=    6.1436   -4.2931    3.1984 Q=   -0.8200 A=    0.0000 R=    0.0000 C=    0.0000
 XYZ=    5.8477   -3.9578    4.0929 Q=    0.4100 A=    0.0000 R=    0.0000 C=    0.0000
 XYZ=    5.7165   -5.1788    3.0166 Q=    0.4100 A=    0.0000 R=    0.0000 C=    0.0000
 XYZ=   -6.8676    2.8171   -4.1783 Q=   -0.8200 A=    0.0000 R=    0.0000 C=    0.0000
 XYZ=   -7.2530    3.2310   -5.0030 Q=    0.4100 A=    0.0000 R=    0.0000 C=    0.0000
 XYZ=   -6.1033    2.2232   -4.4294 Q=    0.4100 A=    0.0000 R=    0.0000 C=    0.0000
 XYZ=    1.3579    3.3861   -7.7639 Q=   -0.8200 A=    0.0000 R=    0.0000 C=    0.0000
 XYZ=    1.7988    3.9233   -7.0448 Q=    0.4100 A=    0.0000 R=    0.0000 C=    0.0000
 XYZ=    1.9285    2.5956   -7.9866 Q=    0.4100 A=    0.0000 R=    0.0000 C=    0.0000
 XYZ=    6.6028    1.5491    3.8353 Q=   -0.8200 A=    0.0000 R=    0.0000 C=    0.0000
 XYZ=    6.2074    2.1454    3.1367 Q=    0.4100 A=    0.0000 R=    0.0000 C=    0.0000
 XYZ=    5.8776    1.0077    4.2608 Q=    0.4100 A=    0.0000 R=    0.0000 C=    0.0000
 XYZ=    1.3515    5.1176    5.8056 Q=   -0.8200 A=    0.0000 R=    0.0000 C=    0.0000
 XYZ=    1.1756    5.6595    4.9838 Q=    0.4100 A=    0.0000 R=    0.0000 C=    0.0000
 XYZ=    0.4982    4.9939    6.3122 Q=    0.4100 A=    0.0000 R=    0.0000 C=    0.0000
 XYZ=    2.5279    1.3597   -7.9625 Q=   -0.8200 A=    0.0000 R=    0.0000 C=    0.0000
 XYZ=    3.5130    1.2591   -7.8230 Q=    0.4100 A=    0.0000 R=    0.0000 C=    0.0000
 XYZ=    2.2899    1.0607   -8.8866 Q=    0.4100 A=    0.0000 R=    0.0000 C=    0.0000
 XYZ=    0.5177   -5.6318    5.3865 Q=   -0.8200 A=    0.0000 R=    0.0000 C=    0.0000
 XYZ=   -0.0480   -6.4010    5.6839 Q=    0.4100 A=    0.0000 R=    0.0000 C=    0.0000
 XYZ=    0.7224   -5.0458    6.1706 Q=    0.4100 A=    0.0000 R=    0.0000 C=    0.0000
 XYZ=    3.3530    4.0984    5.4984 Q=   -0.8200 A=    0.0000 R=    0.0000 C=    0.0000
 XYZ=    4.0378    4.5074    6.1016 Q=    0.4100 A=    0.0000 R=    0.0000 C=    0.0000
 XYZ=    2.4766    4.5628    5.6259 Q=    0.4100 A=    0.0000 R=    0.0000 C=    0.0000
 XYZ=    0.1740    1.7687    8.6242 Q=   -0.8200 A=    0.0000 R=    0.0000 C=    0.0000
 XYZ=    0.4598    1.1488    7.8934 Q=    0.4100 A=    0.0000 R=    0.0000 C=    0.0000
 XYZ=   -0.7983    1.6332    8.8149 Q=    0.4100 A=    0.0000 R=    0.0000 C=    0.0000
 XYZ=    0.8356   -4.1086    7.1859 Q=   -0.8200 A=    0.0000 R=    0.0000 C=    0.0000
 XYZ=    1.7542   -3.7782    6.9691 Q=    0.4100 A=    0.0000 R=    0.0000 C=    0.0000
 XYZ=    0.1612   -3.4240    6.9093 Q=    0.4100 A=    0.0000 R=    0.0000 C=    0.0000
 XYZ=   -3.0385   -5.2747    5.4735 Q=   -0.8200 A=    0.0000 R=    0.0000 C=    0.0000
 XYZ=   -2.2963   -5.1624    4.8128 Q=    0.4100 A=    0.0000 R=    0.0000 C=    0.0000
 XYZ=   -2.8712   -6.0906    6.0271 Q=    0.4100 A=    0.0000 R=    0.0000 C=    0.0000
 XYZ=    2.8866   -5.4579   -7.9212 Q=   -0.8200 A=    0.0000 R=    0.0000 C=    0.0000
 XYZ=    3.6071   -5.6646   -8.5832 Q=    0.4100 A=    0.0000 R=    0.0000 C=    0.0000
 XYZ=    3.2583   -4.8820   -7.1930 Q=    0.4100 A=    0.0000 R=    0.0000 C=    0.0000
 XYZ=    7.3292   -5.3587   -0.3791 Q=   -0.8200 A=    0.0000 R=    0.0000 C=    0.0000
 XYZ=    8.3116   -5.3720   -0.5656 Q=    0.4100 A=    0.0000 R=    0.0000 C=    0.0000
 XYZ=    6.8498   -5.8871   -1.0798 Q=    0.4100 A=    0.0000 R=    0.0000 C=    0.0000
 XYZ=   -6.9638    0.6048    5.5519 Q=   -0.8200 A=    0.0000 R=    0.0000 C=    0.0000
 XYZ=   -6.1318    0.1395    5.2497 Q=    0.4100 A=    0.0000 R=    0.0000 C=    0.0000
 XYZ=   -7.5933   -0.0628    5.9496 Q=    0.4100 A=    0.0000 R=    0.0000 C=    0.0000
 XYZ=   -6.0497    3.9716    4.1618 Q=   -0.8200 A=    0.0000 R=    0.0000 C=    0.0000
 XYZ=   -6.7715    4.5206    3.7403 Q=    0.4100 A=    0.0000 R=    0.0000 C=    0.0000
 XYZ=   -6.4411    3.4093    4.8902 Q=    0.4100 A=    0.0000 R=    0.0000 C=    0.0000
 XYZ=   -5.7119    1.5577   -7.0632 Q=   -0.8200 A=    0.0000 R=    0.0000 C=    0.0000
 XYZ=   -6.1757    0.8180   -7.5507 Q=    0.4100 A=    0.0000 R=    0.0000 C=    0.0000
 XYZ=   -5.5314    1.2743   -6.1213 Q=    0.4100 A=    0.0000 R=    0.0000 C=    0.0000
 XYZ=    7.9939    3.0053   -0.6740 Q=   -0.8200 A=    0.0000 R=    0.0000 C=    0.0000
 XYZ=    7.4391    2.1733   -0.6708 Q=    0.4100 A=    0.0000 R=    0.0000 C=    0.0000
 XYZ=    8.3837    3.1495    0.2356 Q=    0.4100 A=    0.0000 R=    0.0000 C=    0.0000
 XYZ=    5.0115    4.1857   -4.9287 Q=   -0.8200 A=    0.0000 R=    0.0000 C=    0.0000
 XYZ=    5.6944    4.9106   -4.8382 Q=    0.4100 A=    0.0000 R=    0.0000 C=    0.0000
 XYZ=    5.3565    3.4781   -5.5455 Q=    0.4100 A=    0.0000 R=    0.0000 C=    0.0000
 XYZ=   -1.9178   -2.2230    8.6848 Q=   -0.8200 A=    0.0000 R=    0.0000 C=    0.0000
 XYZ=   -1.3769   -2.2541    7.8442 Q=    0.4100 A=    0.0000 R=    0.0000 C=    0.0000
 XYZ=   -1.6103   -2.9439    9.3058 Q=    0.4100 A=    0.0000 R=    0.0000 C=    0.0000
 XYZ=   -8.1785   -1.2251   -0.4243 Q=   -0.8200 A=    0.0000 R=    0.0000 C=    0.0000
 XYZ=   -7.7494   -1.4958   -1.2861 Q=    0.4100 A=    0.0000 R=    0.0000 C=    0.0000
 XYZ=   -7.6666   -1.6167    0.3403 Q=    0.4100 A=    0.0000 R=    0.0000 C=    0.0000
 XYZ=    9.4630   -1.4829   -2.3496 Q=   -0.8200 A=    0.0000 R=    0.0000 C=    0.0000
 XYZ=    8.6713   -1.3199   -1.7608 Q=    0.4100 A=    0.0000 R=    0.0000 C=    0.0000
 XYZ=   10.2753   -1.6255   -1.7840 Q=    0.4100 A=    0.0000 R=    0.0000 C=    0.0000
 XYZ=    7.8947   -4.8474    1.9047 Q=   -0.8200 A=    0.0000 R=    0.0000 C=    0.0000
 XYZ=    7.1879   -4.5900    2.5637 Q=    0.4100 A=    0.0000 R=    0.0000 C=    0.0000
 XYZ=    7.4951   -4.8958    0.9893 Q=    0.4100 A=    0.0000 R=    0.0000 C=    0.0000
 XYZ=   -2.3404   -1.8569   -9.2861 Q=   -0.8200 A=    0.0000 R=    0.0000 C=    0.0000
 XYZ=   -2.3551   -2.7881   -9.6503 Q=    0.4100 A=    0.0000 R=    0.0000 C=    0.0000
 XYZ=   -2.6520   -1.8657   -8.3359 Q=    0.4100 A=    0.0000 R=    0.0000 C=    0.0000
 XYZ=   -8.3777    0.7944    3.4186 Q=   -0.8200 A=    0.0000 R=    0.0000 C=    0.0000
 XYZ=   -7.9033    1.3410    2.7284 Q=    0.4100 A=    0.0000 R=    0.0000 C=    0.0000
 XYZ=   -7.8060    0.7204    4.2358 Q=    0.4100 A=    0.0000 R=    0.0000 C=    0.0000
 XYZ=   -3.8754    2.7653   -7.6480 Q=   -0.8200 A=    0.0000 R=    0.0000 C=    0.0000
 XYZ=   -4.7075    2.2759   -7.3868 Q=    0.4100 A=    0.0000 R=    0.0000 C=    0.0000
 XYZ=   -4.1013    3.7154   -7.8633 Q=    0.4100 A=    0.0000 R=    0.0000 C=    0.0000
 XYZ=    5.3315   -8.1473   -0.5033 Q=   -0.8200 A=    0.0000 R=    0.0000 C=    0.0000
 XYZ=    6.0366   -8.3248    0.1833 Q=    0.4100 A=    0.0000 R=    0.0000 C=    0.0000
 XYZ=    5.7022   -7.5509   -1.2153 Q=    0.4100 A=    0.0000 R=    0.0000 C=    0.0000
 XYZ=   -0.2949    4.6766   -8.5350 Q=   -0.8200 A=    0.0000 R=    0.0000 C=    0.0000
 XYZ=   -0.9618    4.8491   -7.8100 Q=    0.4100 A=    0.0000 R=    0.0000 C=    0.0000
 XYZ=    0.4035    4.0433   -8.2016 Q=    0.4100 A=    0.0000 R=    0.0000 C=    0.0000
 XYZ=    4.5142    6.4813   -0.1305 Q=   -0.8200 A=    0.0000 R=    0.0000 C=    0.0000
 XYZ=    3.6481    6.8225    0.2348 Q=    0.4100 A=    0.0000 R=    0.0000 C=    0.0000
 XYZ=    5.2705    6.8343    0.4204 Q=    0.4100 A=    0.0000 R=    0.0000 C=    0.0000
 XYZ=    0.0272    9.1226   -0.5801 Q=   -0.8200 A=    0.0000 R=    0.0000 C=    0.0000
 XYZ=   -0.0720    9.3280   -1.5537 Q=    0.4100 A=    0.0000 R=    0.0000 C=    0.0000
 XYZ=    0.7682    8.4634   -0.4523 Q=    0.4100 A=    0.0000 R=    0.0000 C=    0.0000
 XYZ=   -8.3847    2.3011   -2.5289 Q=   -0.8200 A=    0.0000 R=    0.0000 C=    0.0000
 XYZ=   -7.8250    2.3361   -3.3569 Q=    0.4100 A=    0.0000 R=    0.0000 C=    0.0000
 XYZ=   -9.3061    1.9903   -2.7625 Q=    0.4100 A=    0.0000 R=    0.0000 C=    0.0000
 XYZ=   -6.0683   -2.0916    6.8797 Q=   -0.8200 A=    0.0000 R=    0.0000 C=    0.0000
 XYZ=   -5.6574   -1.4799    6.2036 Q=    0.4100 A=    0.0000 R=    0.0000 C=    0.0000
 XYZ=   -5.3738   -2.3692    7.5435 Q=    0.4100 A=    0.0000 R=    0.0000 C=    0.0000
 XYZ=   -6.0653   -4.6266   -5.0643 Q=   -0.8200 A=    0.0000 R=    0.0000 C=    0.0000
 XYZ=   -6.4473   -4.3284   -5.9391 Q=    0.4100 A=    0.0000 R=    0.0000 C=    0.0000
 XYZ=   -5.5001   -3.8960   -4.6811 Q=    0.4100 A=    0.0000 R=    0.0000 C=    0.0000
 XYZ=   -0.3901    4.1110    7.9657 Q=   -0.8200 A=    0.0000 R=    0.0000 C=    0.0000
 XYZ=   -0.0405    4.7135    8.6832 Q=    0.4100 A=    0.0000 R=    0.0000 C=    0.0000
 XYZ=   -0.0982    3.1720    8.1474 Q=    0.4100 A=    0.0000 R=    0.0000 C=    0.0000
 XYZ=    4.7727    1.3343   -7.6974 Q=   -0.8200 A=    0.0000 R=    0.0000 C=    0.0000
 XYZ=    5.3663    2.0196   -7.2756 Q=    0.4100 A=    0.0000 R=    0.0000 C=    0.0000
 XYZ=    5.1628    0.4241   -7.5579 Q=    0.4100 A=    0.0000 R=    0.0000 C=    0.0000
 XYZ=    5.1010   -0.8401    6.6108 Q=   -0.8200 A=    0.0000 R=    0.0000 C=    0.0000
 XYZ=    5.4702   -0.5338    7.4882 Q=    0.4100 A=    0.0000 R=    0.0000 C=    0.0000
 XYZ=    5.5790   -1.6687    6.3191 Q=    0.4100 A=    0.0000 R=    0.0000 C=    0.0000
 XYZ=    3.1625   -1.3064    7.7410 Q=   -0.8200 A=    0.0000 R=    0.0000 C=    0.0000
 XYZ=    3.3791   -1.2697    8.7165 Q=    0.4100 A=    0.0000 R=    0.0000 C=    0.0000
 XYZ=    3.9572   -1.0092    7.2117 Q=    0.4100 A=    0.0000 R=    0.0000 C=    0.0000
 XYZ=   -4.5615    8.6629   -1.0371 Q=   -0.8200 A=    0.0000 R=    0.0000 C=    0.0000
 XYZ=   -4.9328    9.4115   -0.4877 Q=    0.4100 A=    0.0000 R=    0.0000 C=    0.0000
 XYZ=   -3.6164    8.4852   -0.7628 Q=    0.4100 A=    0.0000 R=    0.0000 C=    0.0000
 XYZ=   -0.2358    9.1751   -2.9957 Q=   -0.8200 A=    0.0000 R=    0.0000 C=    0.0000
 XYZ=   -0.7849    9.7719   -3.5809 Q=    0.4100 A=    0.0000 R=    0.0000 C=    0.0000
 XYZ=   -0.3430    8.2264   -3.2932 Q=    0.4100 A=    0.0000 R=    0.0000 C=    0.0000
 XYZ=   -8.2472    4.3755   -1.4681 Q=   -0.8200 A=    0.0000 R=    0.0000 C=    0.0000
 XYZ=   -8.2795    5.1594   -2.0882 Q=    0.4100 A=    0.0000 R=    0.0000 C=    0.0000
 XYZ=   -8.3059    3.5291   -1.9974 Q=    0.4100 A=    0.0000 R=    0.0000 C=    0.0000
 XYZ=   -6.0874   -4.0095    3.7494 Q=   -0.8200 A=    0.0000 R=    0.0000 C=    0.0000
 XYZ=   -6.6977   -3.8467    4.5247 Q=    0.4100 A=    0.0000 R=    0.0000 C=    0.0000
 XYZ=   -5.5060   -4.7998    3.9431 Q=    0.4100 A=    0.0000 R=    0.0000 C=    0.0000
 XYZ=    6.1089   -2.9661   -8.1853 Q=   -0.8200 A=    0.0000 R=    0.0000 C=    0.0000
 XYZ=    5.8828   -2.1578   -7.6416 Q=    0.4100 A=    0.0000 R=    0.0000 C=    0.0000
 XYZ=    6.0159   -3.7852   -7.6192 Q=    0.4100 A=    0.0000 R=    0.0000 C=    0.0000
 XYZ=   -6.5986    7.2115   -0.0867 Q=   -0.8200 A=    0.0000 R=    0.0000 C=    0.0000
 XYZ=   -5.8801    7.4860   -0.7258 Q=    0.4100 A=    0.0000 R=    0.0000 C=    0.0000
 XYZ=   -6.7176    7.9224    0.6064 Q=    0.4100 A=    0.0000 R=    0.0000 C=    0.0000
 XYZ=   -5.3375    5.8636    5.6021 Q=   -0.8200 A=    0.0000 R=    0.0000 C=    0.0000
 XYZ=   -6.2242    6.3064    5.7354 Q=    0.4100 A=    0.0000 R=    0.0000 C=    0.0000
 XYZ=   -5.4609    5.0220    5.0762 Q=    0.4100 A=    0.0000 R=    0.0000 C=    0.0000
 XYZ=    3.3001   -2.4906   -9.7264 Q=   -0.8200 A=    0.0000 R=    0.0000 C=    0.0000
 XYZ=    3.5170   -2.0990   -8.8322 Q=    0.4100 A=    0.0000 R=    0.0000 C=    0.0000
 XYZ=    4.0768   -3.0302  -10.0513 Q=    0.4100 A=    0.0000 R=    0.0000 C=    0.0000
 XYZ=   -0.0787   -1.0387   -9.8033 Q=   -0.8200 A=    0.0000 R=    0.0000 C=    0.0000
 XYZ=    0.4655   -1.8508  -10.0141 Q=    0.4100 A=    0.0000 R=    0.0000 C=    0.0000
 XYZ=   -0.9657   -1.3181   -9.4356 Q=    0.4100 A=    0.0000 R=    0.0000 C=    0.0000
 XYZ=   -9.1252    3.8661    2.0766 Q=   -0.8200 A=    0.0000 R=    0.0000 C=    0.0000
 XYZ=   -8.4924    3.1052    1.9330 Q=    0.4100 A=    0.0000 R=    0.0000 C=    0.0000
 XYZ=  -10.0103    3.5113    2.3776 Q=    0.4100 A=    0.0000 R=    0.0000 C=    0.0000
 XYZ=   -1.4470   -8.7318    3.6483 Q=   -0.8200 A=    0.0000 R=    0.0000 C=    0.0000
 XYZ=   -0.8037   -9.2975    3.1323 Q=    0.4100 A=    0.0000 R=    0.0000 C=    0.0000
 XYZ=   -1.7169   -7.9442    3.0943 Q=    0.4100 A=    0.0000 R=    0.0000 C=    0.0000
 XYZ=    0.7292   -6.0520   -7.9459 Q=   -0.8200 A=    0.0000 R=    0.0000 C=    0.0000
 XYZ=    0.7673   -7.0331   -7.7561 Q=    0.4100 A=    0.0000 R=    0.0000 C=    0.0000
 XYZ=    1.6583   -5.6842   -7.9872 Q=    0.4100 A=    0.0000 R=    0.0000 C=    0.0000
 XYZ=   -4.1996    8.5214   -3.4301 Q=   -0.8200 A=    0.0000 R=    0.0000 C=    0.0000
 XYZ=   -4.3028    8.5432   -2.4356 Q=    0.4100 A=    0.0000 R=    0.0000 C=    0.0000
 XYZ=   -4.4048    7.6023   -3.7664 Q=    0.4100 A=    0.0000 R=    0.0000 C=    0.0000
 XYZ=   -4.9009   -5.8451    4.1919 Q=   -0.8200 A=    0.0000 R=    0.0000 C=    0.0000
 XYZ=   -4.1371   -5.5424    4.7621 Q=    0.4100 A=    0.0000 R=    0.0000 C=    0.0000
 XYZ=   -4.5648   -6.0722    3.2778 Q=    0.4100 A=    0.0000 R=    0.0000 C=    0.0000
 XYZ=    9.0543   -1.8903    1.0833 Q=   -0.8200 A=    0.0000 R=    0.0000 C=    0.0000
 XYZ=    9.2090   -2.7342    1.5971 Q=    0.4100 A=    0.0000 R=    0.0000 C=    0.0000
 XYZ=    8.8255   -1.1514    1.7172 Q=    0.4100 A=    0.0000 R=    0.0000 C=    0.0000
 XYZ=   -2.6267    3.7868    8.3381 Q=   -0.8200 A=    0.0000 R=    0.0000 C=    0.0000
 XYZ=   -1.6992    4.0644    8.0878 Q=    0.4100 A=    0.0000 R=    0.0000 C=    0.0000
 XYZ=   -2.5993    2.8867    8.7730 Q=    0.4100 A=    0.0000 R=    0.0000 C=    0.0000
 XYZ=   -1.6836   -6.1620   -7.4757 Q=   -0.8200 A=    0.0000 R=    0.0000 C=    0.0000
 XYZ=   -0.7301   -5.8728   -7.5609 Q=    0.4100 A=    0.0000 R=    0.0000 C=    0.0000
 XYZ=   -1.8667   -6.4326   -6.5306 Q=    0.4100 A=    0.0000 R=    0.0000 C=    0.0000
 XYZ=   -4.2782   -6.7478    2.1058 Q=   -0.8200 A=    0.0000 R=    0.0000 C=    0.0000
 XYZ=   -4.2219   -7.7383    1.9800 Q=    0.4100 A=    0.0000 R=    0.0000 C=    0.0000
 XYZ=   -4.9328   -6.3657    1.4534 Q=    0.4100 A=    0.0000 R=    0.0000 C=    0.0000
 XYZ=    7.1229   -7.0565    2.7174 Q=   -0.8200 A=    0.0000 R=    0.0000 C=    0.0000
 XYZ=    7.5521   -6.2203    2.3758 Q=    0.4100 A=    0.0000 R=    0.0000 C=    0.0000
 XYZ=    6.1529   -6.8863    2.8909 Q=    0.4100 A=    0.0000 R=    0.0000 C=    0.0000
 XYZ=    7.7555    1.9359   -4.8054 Q=   -0.8200 A=    0.0000 R=    0.0000 C=    0.0000
 XYZ=    7.7450    2.7767   -4.2641 Q=    0.4100 A=    0.0000 R=    0.0000 C=    0.0000
 XYZ=    8.5593    1.3930   -4.5621 Q=    0.4100 A=    0.0000 R=    0.0000 C=    0.0000
 XYZ=    5.8655   -5.1589   -6.9827 Q=   -0.8200 A=    0.0000 R=    0.0000 C=    0.0000
 XYZ=    6.6579   -5.6540   -6.6263 Q=    0.4100 A=    0.0000 R=    0.0000 C=    0.0000
 XYZ=    5.4840   -5.6568   -7.7615 Q=    0.4100 A=    0.0000 R=    0.0000 C=    0.0000
 XYZ=    6.1410    2.7768   -6.3979 Q=   -0.8200 A=    0.0000 R=    0.0000 C=    0.0000
 XYZ=    6.5171    3.5723   -6.8729 Q=    0.4100 A=    0.0000 R=    0.0000 C=    0.0000
 XYZ=    6.8267    2.4086   -5.7700 Q=    0.4100 A=    0.0000 R=    0.0000 C=    0.0000
 XYZ=    6.6278    4.4840   -1.7388 Q=   -0.8200 A=    0.0000 R=    0.0000 C=    0.0000
 XYZ=    7.2789    3.8985   -1.2558 Q=    0.4100 A=    0.0000 R=    0.0000 C=    0.0000
 XYZ=    6.7085    5.4217   -1.4009 Q=    0.4100 A=    0.0000 R=    0.0000 C=    0.0000
 XYZ=    3.1856   -7.6593   -7.0471 Q=   -0.8200 A=    0.0000 R=    0.0000 C=    0.0000
 XYZ=    4.1004   -7.9869   -7.2833 Q=    0.4100 A=    0.0000 R=    0.0000 C=    0.0000
 XYZ=    3.1050   -6.6925   -7.2894 Q=    0.4100 A=    0.0000 R=    0.0000 C=    0.0000
 XYZ=   -4.0087    7.5698    4.7608 Q=   -0.8200 A=    0.0000 R=    0.0000 C=    0.0000
 XYZ=   -4.4582    6.6838    4.8748 Q=    0.4100 A=    0.0000 R=    0.0000 C=    0.0000
 XYZ=   -4.6573    8.3019    4.9695 Q=    0.4100 A=    0.0000 R=    0.0000 C=    0.0000
 XYZ=   -0.0068    7.8403    5.8499 Q=   -0.8200 A=    0.0000 R=    0.0000 C=    0.0000
 XYZ=    0.5225    7.2337    5.2567 Q=    0.4100 A=    0.0000 R=    0.0000 C=    0.0000
 XYZ=   -0.9434    7.4980    5.9260 Q=    0.4100 A=    0.0000 R=    0.0000 C=    0.0000
 XYZ=    1.5660    0.7342  -10.0496 Q=   -0.8200 A=    0.0000 R=    0.0000 C=    0.0000
 XYZ=    1.0191    1.5594  -10.1911 Q=    0.4100 A=    0.0000 R=    0.0000 C=    0.0000
 XYZ=    0.9595   -0.0420   -9.8772 Q=    0.4100 A=    0.0000 R=    0.0000 C=    0.0000
 XYZ=    7.5938    4.1993    3.1916 Q=   -0.8200 A=    0.0000 R=    0.0000 C=    0.0000
 XYZ=    7.8199    3.7348    4.0478 Q=    0.4100 A=    0.0000 R=    0.0000 C=    0.0000
 XYZ=    7.0675    3.5822    2.6065 Q=    0.4100 A=    0.0000 R=    0.0000 C=    0.0000
 XYZ=   -2.9278    8.6603    2.9932 Q=   -0.8200 A=    0.0000 R=    0.0000 C=    0.0000
 XYZ=   -3.4514    8.1936    3.7060 Q=    0.4100 A=    0.0000 R=    0.0000 C=    0.0000
 XYZ=   -3.4394    9.4572    2.6716 Q=    0.4100 A=    0.0000 R=    0.0000 C=    0.0000
 XYZ=   -7.2607   -4.7980    1.8438 Q=   -0.8200 A=    0.0000 R=    0.0000 C=    0.0000
 XYZ=   -6.7175   -5.2602    1.1429 Q=    0.4100 A=    0.0000 R=    0.0000 C=    0.0000
 XYZ=   -6.6760   -4.5705    2.6224 Q=    0.4100 A=    0.0000 R=    0.0000 C=    0.0000
 XYZ=    6.2261    6.0569    3.4803 Q=   -0.8200 A=    0.0000 R=    0.0000 C=    0.0000
 XYZ=    5.3224    5.6518    3.3418 Q=    0.4100 A=    0.0000 R=    0.0000 C=    0.0000
 XYZ=    6.9241    5.3433    3.4204 Q=    0.4100 A=    0.0000 R=    0.0000 C=    0.0000
 XYZ=   -9.0458   -1.5363    2.8918 Q=   -0.8200 A=    0.0000 R=    0.0000 C=    0.0000
 XYZ=   -8.2898   -1.8173    2.3007 Q=    0.4100 A=    0.0000 R=    0.0000 C=    0.0000
 XYZ=   -8.8860   -0.6043    3.2170 Q=    0.4100 A=    0.0000 R=    0.0000 C=    0.0000
 XYZ=   -3.5730    2.2480   -9.9390 Q=   -0.8200 A=    0.0000 R=    0.0000 C=    0.0000
 XYZ=   -3.5788    2.5627   -8.9898 Q=    0.4100 A=    0.0000 R=    0.0000 C=    0.0000
 XYZ=   -3.4237    1.2595   -9.9614 Q=    0.4100 A=    0.0000 R=    0.0000 C=    0.0000
 XYZ=   -7.2966    2.8042    6.0476 Q=   -0.8200 A=    0.0000 R=    0.0000 C=    0.0000
 XYZ=   -7.4671    2.8288    7.0326 Q=    0.4100 A=    0.0000 R=    0.0000 C=    0.0000
 XYZ=   -7.2198    1.8537    5.7463 Q=    0.4100 A=    0.0000 R=    0.0000 C=    0.0000
 XYZ=   -4.2067   -2.9492    8.1128 Q=   -0.8200 A=    0.0000 R=    0.0000 C=    0.0000
 XYZ=   -3.3649   -2.5082    8.4243 Q=    0.4100 A=    0.0000 R=    0.0000 C=    0.0000
 XYZ=   -4.2223   -3.8980    8.4285 Q=    0.4100 A=    0.0000 R=    0.0000 C=    0.0000
 XYZ=   -2.1531    7.0755    6.1974 Q=   -0.8200 A=    0.0000 R=    0.0000 C=    0.0000
 XYZ=   -2.8745    7.2397    5.5246 Q=    0.4100 A=    0.0000 R=    0.0000 C=    0.0000
 XYZ=   -2.5652    6.8246    7.0734 Q=    0.4100 A=    0.0000 R=    0.0000 C=    0.0000
 XYZ=    9.8021    1.3530    1.9850 Q=   -0.8200 A=    0.0000 R=    0.0000 C=    0.0000
 XYZ=    9.0543    0.6893    1.9671 Q=    0.4100 A=    0.0000 R=    0.0000 C=    0.0000
 XYZ=    9.4775    2.2304    1.6318 Q=    0.4100 A=    0.0000 R=    0.0000 C=    0.0000
 XYZ=    7.9163    2.9190    5.2078 Q=   -0.8200 A=    0.0000 R=    0.0000 C=    0.0000
 XYZ=    7.3279    2.2386    4.7708 Q=    0.4100 A=    0.0000 R=    0.0000 C=    0.0000
 XYZ=    8.7389    2.4718    5.5591 Q=    0.4100 A=    0.0000 R=    0.0000 C=    0.0000
 XYZ=   -4.3810    5.5080    7.7559 Q=   -0.8200 A=    0.0000 R=    0.0000 C=    0.0000
 XYZ=   -4.8293    5.6759    6.8779 Q=    0.4100 A=    0.0000 R=    0.0000 C=    0.0000
 XYZ=   -3.8629    4.6541    7.7076 Q=    0.4100 A=    0.0000 R=    0.0000 C=    0.0000
 XYZ=    8.6312   -3.9005   -6.2176 Q=   -0.8200 A=    0.0000 R=    0.0000 C=    0.0000
 XYZ=    8.7249   -3.3810   -5.3683 Q=    0.4100 A=    0.0000 R=    0.0000 C=    0.0000
 XYZ=    8.6691   -3.2748   -6.9968 Q=    0.4100 A=    0.0000 R=    0.0000 C=    0.0000
 XYZ=    9.4626    0.5990   -3.9170 Q=   -0.8200 A=    0.0000 R=    0.0000 C=    0.0000
 XYZ=    9.8797    1.2093   -3.2435 Q=    0.4100 A=    0.0000 R=    0.0000 C=    0.0000
 XYZ=    9.5811   -0.3501   -3.6251 Q=    0.4100 A=    0.0000 R=    0.0000 C=    0.0000
 XYZ=    7.8198    4.1041   -3.5587 Q=   -0.8200 A=    0.0000 R=    0.0000 C=    0.0000
 XYZ=    7.2894    4.4636   -2.7909 Q=    0.4100 A=    0.0000 R=    0.0000 C=    0.0000
 XYZ=    8.7956    4.2194   -3.3727 Q=    0.4100 A=    0.0000 R=    0.0000 C=    0.0000
 XYZ=    1.3266    2.5078   10.3141 Q=   -0.8200 A=    0.0000 R=    0.0000 C=    0.0000
 XYZ=    2.3027    2.6572   10.1559 Q=    0.4100 A=    0.0000 R=    0.0000 C=    0.0000
 XYZ=    0.9182    2.0873    9.5039 Q=    0.4100 A=    0.0000 R=    0.0000 C=    0.0000
 XYZ=    0.8529    3.1485  -10.5952 Q=   -0.8200 A=    0.0000 R=    0.0000 C=    0.0000
 XYZ=    0.5761    3.5879   -9.7406 Q=    0.4100 A=    0.0000 R=    0.0000 C=    0.0000
 XYZ=    1.1081    3.8484  -11.2624 Q=    0.4100 A=    0.0000 R=    0.0000 C=    0.0000
 XYZ=   -7.9848    5.1793    3.4444 Q=   -0.8200 A=    0.0000 R=    0.0000 C=    0.0000
 XYZ=   -8.2750    5.0617    4.3941 Q=    0.4100 A=    0.0000 R=    0.0000 C=    0.0000
 XYZ=   -8.6065    4.6791    2.8416 Q=    0.4100 A=    0.0000 R=    0.0000 C=    0.0000
 XYZ=   -0.4477    9.1171    3.8099 Q=   -0.8200 A=    0.0000 R=    0.0000 C=    0.0000
 XYZ=   -1.4276    9.0303    3.6299 Q=    0.4100 A=    0.0000 R=    0.0000 C=    0.0000
 XYZ=   -0.2537    8.8239    4.7461 Q=    0.4100 A=    0.0000 R=    0.0000 C=    0.0000
 XYZ=    4.6859    1.7785    7.9181 Q=   -0.8200 A=    0.0000 R=    0.0000 C=    0.0000
 XYZ=    5.4111    2.3625    7.5533 Q=    0.4100 A=    0.0000 R=    0.0000 C=    0.0000
 XYZ=    4.0586    2.3302    8.4678 Q=    0.4100 A=    0.0000 R=    0.0000 C=    0.0000
 XYZ=   -2.0294    1.7990    9.5536 Q=   -0.8200 A=    0.0000 R=    0.0000 C=    0.0000
 XYZ=   -2.2633    0.8533    9.7795 Q=    0.4100 A=    0.0000 R=    0.0000 C=    0.0000
 XYZ=   -1.8302    2.3029   10.3941 Q=    0.4100 A=    0.0000 R=    0.0000 C=    0.0000
 XYZ=    7.8518   -6.8141   -3.6011 Q=   -0.8200 A=    0.0000 R=    0.0000 C=    0.0000
 XYZ=    7.8018   -6.5331   -4.5595 Q=    0.4100 A=    0.0000 R=    0.0000 C=    0.0000
 XYZ=    8.6852   -7.3467   -3.4529 Q=    0.4100 A=    0.0000 R=    0.0000 C=    0.0000
 XYZ=   -7.0390   -5.8210   -1.8002 Q=   -0.8200 A=    0.0000 R=    0.0000 C=    0.0000
 XYZ=   -7.9809   -5.8809   -2.1307 Q=    0.4100 A=    0.0000 R=    0.0000 C=    0.0000
 XYZ=   -6.4943   -5.2810   -2.4419 Q=    0.4100 A=    0.0000 R=    0.0000 C=    0.0000
 XYZ=  -10.4527   -0.7717   -0.4573 Q=   -0.8200 A=    0.0000 R=    0.0000 C=    0.0000
 XYZ=  -10.6257    0.2132   -0.4512 Q=    0.4100 A=    0.0000 R=    0.0000 C=    0.0000
 XYZ=   -9.4664   -0.9369   -0.4510 Q=    0.4100 A=    0.0000 R=    0.0000 C=    0.0000
 XYZ=   -3.3636   -0.0163  -10.4810 Q=   -0.8200 A=    0.0000 R=    0.0000 C=    0.0000
 XYZ=   -2.8883   -0.7417   -9.9830 Q=    0.4100 A=    0.0000 R=    0.0000 C=    0.0000
 XYZ=   -4.2309   -0.3673  -10.8338 Q=    0.4100 A=    0.0000 R=    0.0000 C=    0.0000
 XYZ=   -0.0947   -4.8953   -9.8362 Q=   -0.8200 A=    0.0000 R=    0.0000 C=    0.0000
 XYZ=    0.5751   -4.1890  -10.0657 Q=    0.4100 A=    0.0000 R=    0.0000 C=    0.0000
 XYZ=    0.1922   -5.3687   -9.0033 Q=    0.4100 A=    0.0000 R=    0.0000 C=    0.0000
 XYZ=    0.9535   -8.2590   -7.1413 Q=   -0.8200 A=    0.0000 R=    0.0000 C=    0.0000
 XYZ=    0.6772   -8.6160   -6.2489 Q=    0.4100 A=    0.0000 R=    0.0000 C=    0.0000
 XYZ=    1.9384   -8.0856   -7.1404 Q=    0.4100 A=    0.0000 R=    0.0000 C=    0.0000
 XYZ=   -2.5895   -0.3664   10.0447 Q=   -0.8200 A=    0.0000 R=    0.0000 C=    0.0000
 XYZ=   -2.2191   -1.1687    9.5766 Q=    0.4100 A=    0.0000 R=    0.0000 C=    0.0000
 XYZ=   -3.2447   -0.6597   10.7409 Q=    0.4100 A=    0.0000 R=    0.0000 C=    0.0000
 XYZ=   -0.8346   -7.8042    5.7465 Q=   -0.8200 A=    0.0000 R=    0.0000 C=    0.0000
 XYZ=   -1.6064   -7.8190    6.3822 Q=    0.4100 A=    0.0000 R=    0.0000 C=    0.0000
 XYZ=   -1.0842   -8.2885    4.9078 Q=    0.4100 A=    0.0000 R=    0.0000 C=    0.0000
 XYZ=    8.2466   -2.0412   -7.5468 Q=   -0.8200 A=    0.0000 R=    0.0000 C=    0.0000
 XYZ=    7.3259   -2.3122   -7.8277 Q=    0.4100 A=    0.0000 R=    0.0000 C=    0.0000
 XYZ=    8.2333   -1.0919   -7.2326 Q=    0.4100 A=    0.0000 R=    0.0000 C=    0.0000
 XYZ=  -10.1046    3.5987   -0.0977 Q=   -0.8200 A=    0.0000 R=    0.0000 C=    0.0000
 XYZ=   -9.5469    4.0408   -0.8004 Q=    0.4100 A=    0.0000 R=    0.0000 C=    0.0000
 XYZ=   -9.6938    3.7546    0.8006 Q=    0.4100 A=    0.0000 R=    0.0000 C=    0.0000
 XYZ=   -6.0452   -6.2449    0.4727 Q=   -0.8200 A=    0.0000 R=    0.0000 C=    0.0000
 XYZ=   -6.5295   -6.0079   -0.3696 Q=    0.4100 A=    0.0000 R=    0.0000 C=    0.0000
 XYZ=   -6.0587   -7.2371    0.5968 Q=    0.4100 A=    0.0000 R=    0.0000 C=    0.0000
 XYZ=    9.9983    2.1964   -1.9152 Q=   -0.8200 A=    0.0000 R=    0.0000 C=    0.0000
 XYZ=    9.1894    2.6275   -1.5154 Q=    0.4100 A=    0.0000 R=    0.0000 C=    0.0000
 XYZ=   10.4915    1.6916   -1.2067 Q=    0.4100 A=    0.0000 R=    0.0000 C=    0.0000
 XYZ=   -2.7917    9.2014   -5.2934 Q=   -0.8200 A=    0.0000 R=    0.0000 C=    0.0000
 XYZ=   -3.2110    8.8400   -4.4605 Q=    0.4100 A=    0.0000 R=    0.0000 C=    0.0000
 XYZ=   -2.5627    8.4452   -5.9063 Q=    0.4100 A=    0.0000 R=    0.0000 C=    0.0000
 XYZ=    0.1882   -4.9280    9.3713 Q=   -0.8200 A=    0.0000 R=    0.0000 C=    0.0000
 XYZ=    0.1249   -4.7001    8.3996 Q=    0.4100 A=    0.0000 R=    0.0000 C=    0.0000
 XYZ=    1.1503   -4.9853    9.6382 Q=    0.4100 A=    0.0000 R=    0.0000 C=    0.0000
 XYZ=   -7.5177   -3.6531    5.6622 Q=   -0.8200 A=    0.0000 R=    0.0000 C=    0.0000
 XYZ=   -8.2485   -3.0498    5.3427 Q=    0.4100 A=    0.0000 R=    0.0000 C=    0.0000
 XYZ=   -6.8763   -3.1309    6.2243 Q=    0.4100 A=    0.0000 R=    0.0000 C=    0.0000
 XYZ=    1.1704   -3.0200  -10.5527 Q=   -0.8200 A=    0.0000 R=    0.0000 C=    0.0000
 XYZ=    2.0748   -2.9270  -10.1362 Q=    0.4100 A=    0.0000 R=    0.0000 C=    0.0000
 XYZ=    1.2116   -2.7265  -11.5078 Q=    0.4100 A=    0.0000 R=    0.0000 C=    0.0000
 XYZ=   11.0020   -1.3878   -0.2977 Q=   -0.8200 A=    0.0000 R=    0.0000 C=    0.0000
 XYZ=   11.7822   -1.3288    0.3252 Q=    0.4100 A=    0.0000 R=    0.0000 C=    0.0000
 XYZ=   10.2050   -1.7323    0.1983 Q=    0.4100 A=    0.0000 R=    0.0000 C=    0.0000
 XYZ=   -4.2369    5.2725   -7.9802 Q=   -0.8200 A=    0.0000 R=    0.0000 C=    0.0000
 XYZ=   -3.8244    6.0221   -8.4978 Q=    0.4100 A=    0.0000 R=    0.0000 C=    0.0000
 XYZ=   -5.2077    5.2033   -8.2100 Q=    0.4100 A=    0.0000 R=    0.0000 C=    0.0000
 XYZ=    7.5445   -8.3495    0.7965 Q=   -0.8200 A=    0.0000 R=    0.0000 C=    0.0000
 XYZ=    7.3323   -7.7195    1.5436 Q=    0.4100 A=    0.0000 R=    0.0000 C=    0.0000
 XYZ=    8.0504   -9.1338    1.1555 Q=    0.4100 A=    0.0000 R=    0.0000 C=    0.0000
 XYZ=    7.8853   -6.1473   -6.1170 Q=   -0.8200 A=    0.0000 R=    0.0000 C=    0.0000
 XYZ=    8.2588   -5.2206   -6.1593 Q=    0.4100 A=    0.0000 R=    0.0000 C=    0.0000
 XYZ=    8.4725   -6.7673   -6.6373 Q=    0.4100 A=    0.0000 R=    0.0000 C=    0.0000
 XYZ=   -1.3561    0.0476  -11.5317 Q=   -0.8200 A=    0.0000 R=    0.0000 C=    0.0000
 XYZ=   -0.7338   -0.4346  -10.9151 Q=    0.4100 A=    0.0000 R=    0.0000 C=    0.0000
 XYZ=   -2.2202    0.2257  -11.0609 Q=    0.4100 A=    0.0000 R=    0.0000 C=    0.0000
 XYZ=   -3.3948   -7.4966   -6.0927 Q=   -0.8200 A=    0.0000 R=    0.0000 C=    0.0000
 XYZ=   -3.4969   -7.7561   -7.0531 Q=    0.4100 A=    0.0000 R=    0.0000 C=    0.0000
 XYZ=   -4.2600   -7.1269   -5.7537 Q=    0.4100 A=    0.0000 R=    0.0000 C=    0.0000
 XYZ=   -7.5562    3.5089   -6.7096 Q=   -0.8200 A=    0.0000 R=    0.0000 C=    0.0000
 XYZ=   -7.1821    4.1699   -7.3601 Q=    0.4100 A=    0.0000 R=    0.0000 C=    0.0000
 XYZ=   -7.2136    2.5953   -6.9285 Q=    0.4100 A=    0.0000 R=    0.0000 C=    0.0000
 XYZ=   -5.4900   -6.9284   -5.4202 Q=   -0.8200 A=    0.0000 R=    0.0000 C=    0.0000
 XYZ=   -5.6952   -5.9628   -5.2606 Q=    0.4100 A=    0.0000 R=    0.0000 C=    0.0000
 XYZ=   -5.9072   -7.4814   -4.6989 Q=    0.4100 A=    0.0000 R=    0.0000 C=    0.0000
 XYZ=   10.2386   -4.0279    2.2215 Q=   -0.8200 A=    0.0000 R=    0.0000 C=    0.0000
 XYZ=    9.3785   -4.5278    2.3238 Q=    0.4100 A=    0.0000 R=    0.0000 C=    0.0000
 XYZ=   10.8460   -4.5320    1.6075 Q=    0.4100 A=    0.0000 R=    0.0000 C=    0.0000
 XYZ=    9.5995   -5.6485   -1.0976 Q=   -0.8200 A=    0.0000 R=    0.0000 C=    0.0000
 XYZ=   10.0318   -5.6436   -1.9994 Q=    0.4100 A=    0.0000 R=    0.0000 C=    0.0000
 XYZ=    9.3440   -6.5846   -0.8556 Q=    0.4100 A=    0.0000 R=    0.0000 C=    0.0000
 XYZ=    5.0358    4.9669    7.0908 Q=   -0.8200 A=    0.0000 R=    0.0000 C=    0.0000
 XYZ=    5.5803    5.8022    7.0141 Q=    0.4100 A=    0.0000 R=    0.0000 C=    0.0000
 XYZ=    5.6172    4.1727    6.9143 Q=    0.4100 A=    0.0000 R=    0.0000 C=    0.0000
 XYZ=   -8.3918   -0.9851    6.7112 Q=   -0.8200 A=    0.0000 R=    0.0000 C=    0.0000
 XYZ=   -8.9464   -1.6381    6.1954 Q=    0.4100 A=    0.0000 R=    0.0000 C=    0.0000
 XYZ=   -7.4840   -1.3725    6.8717 Q=    0.4100 A=    0.0000 R=    0.0000 C=    0.0000
 XYZ=    0.3341   11.2100    0.7470 Q=   -0.8200 A=    0.0000 R=    0.0000 C=    0.0000
 XYZ=    1.2442   11.6096    0.6364 Q=    0.4100 A=    0.0000 R=    0.0000 C=    0.0000
 XYZ=    0.2318   10.4361    0.1220 Q=    0.4100 A=    0.0000 R=    0.0000 C=    0.0000
 XYZ=    6.9415    5.6338   -5.0231 Q=   -0.8200 A=    0.0000 R=    0.0000 C=    0.0000
 XYZ=    7.3688    4.9620   -4.4180 Q=    0.4100 A=    0.0000 R=    0.0000 C=    0.0000
 XYZ=    7.2649    5.4929   -5.9588 Q=    0.4100 A=    0.0000 R=    0.0000 C=    0.0000
 XYZ=   -1.5849    5.5515  -10.4365 Q=   -0.8200 A=    0.0000 R=    0.0000 C=    0.0000
 XYZ=   -2.0033    4.7830  -10.9207 Q=    0.4100 A=    0.0000 R=    0.0000 C=    0.0000
 XYZ=   -1.0627    5.2089   -9.6555 Q=    0.4100 A=    0.0000 R=    0.0000 C=    0.0000
 XYZ=    7.0656    6.8695   -0.8392 Q=   -0.8200 A=    0.0000 R=    0.0000 C=    0.0000
 XYZ=    6.1578    7.0484   -1.2186 Q=    0.4100 A=    0.0000 R=    0.0000 C=    0.0000
 XYZ=    7.0470    7.0117    0.1505 Q=    0.4100 A=    0.0000 R=    0.0000 C=    0.0000
 XYZ=    2.9333   -0.7686  -11.3888 Q=   -0.8200 A=    0.0000 R=    0.0000 C=    0.0000
 XYZ=    2.4428   -0.0420  -10.9078 Q=    0.4100 A=    0.0000 R=    0.0000 C=    0.0000
 XYZ=    3.1970   -1.4804  -10.7377 Q=    0.4100 A=    0.0000 R=    0.0000 C=    0.0000
 XYZ=  -10.8501    0.6239    3.3116 Q=   -0.8200 A=    0.0000 R=    0.0000 C=    0.0000
 XYZ=   -9.8564    0.7358    3.3086 Q=    0.4100 A=    0.0000 R=    0.0000 C=    0.0000
 XYZ=  -11.1040   -0.1169    2.6897 Q=    0.4100 A=    0.0000 R=    0.0000 C=    0.0000
 XYZ=   -6.8013   -0.3358   -8.4534 Q=   -0.8200 A=    0.0000 R=    0.0000 C=    0.0000
 XYZ=   -7.4650   -1.0151   -8.1401 Q=    0.4100 A=    0.0000 R=    0.0000 C=    0.0000
 XYZ=   -6.0881   -0.7888   -8.9884 Q=    0.4100 A=    0.0000 R=    0.0000 C=    0.0000
 XYZ=    6.4144    3.0394    7.2191 Q=   -0.8200 A=    0.0000 R=    0.0000 C=    0.0000
 XYZ=    6.9329    2.9324    6.3707 Q=    0.4100 A=    0.0000 R=    0.0000 C=    0.0000
 XYZ=    7.0436    3.2311    7.9723 Q=    0.4100 A=    0.0000 R=    0.0000 C=    0.0000
 XYZ=   -8.1856    7.9296    3.2143 Q=   -0.8200 A=    0.0000 R=    0.0000 C=    0.0000
 XYZ=   -8.0234    6.9441    3.1639 Q=    0.4100 A=    0.0000 R=    0.0000 C=    0.0000
 XYZ=   -8.0098    8.2491    4.1454 Q=    0.4100 A=    0.0000 R=    0.0000 C=    0.0000
 XYZ=    6.1315    0.0804    8.7575 Q=   -0.8200 A=    0.0000 R=    0.0000 C=    0.0000
 XYZ=    5.4425    0.7673    8.5261 Q=    0.4100 A=    0.0000 R=    0.0000 C=    0.0000
 XYZ=    6.8919    0.5192    9.2363 Q=    0.4100 A=    0.0000 R=    0.0000 C=    0.0000
 XYZ=   -4.0154   -9.0241    1.6186 Q=   -0.8200 A=    0.0000 R=    0.0000 C=    0.0000
 XYZ=   -4.9548   -8.9236    1.2908 Q=    0.4100 A=    0.0000 R=    0.0000 C=    0.0000
 XYZ=   -3.5226   -9.6626    1.0274 Q=    0.4100 A=    0.0000 R=    0.0000 C=    0.0000
 XYZ=    5.1535   -3.7548  -10.3451 Q=   -0.8200 A=    0.0000 R=    0.0000 C=    0.0000
 XYZ=    5.6715   -3.8093  -11.1989 Q=    0.4100 A=    0.0000 R=    0.0000 C=    0.0000
 XYZ=    5.7434   -3.4005   -9.6194 Q=    0.4100 A=    0.0000 R=    0.0000 C=    0.0000
 XYZ=   10.8531    0.9099   -0.2032 Q=   -0.8200 A=    0.0000 R=    0.0000 C=    0.0000
 XYZ=   10.7348   -0.0775   -0.3091 Q=    0.4100 A=    0.0000 R=    0.0000 C=    0.0000
 XYZ=   10.6895    1.1648    0.7499 Q=    0.4100 A=    0.0000 R=    0.0000 C=    0.0000
 XYZ=   -2.1684   -3.8666  -10.3743 Q=   -0.8200 A=    0.0000 R=    0.0000 C=    0.0000
 XYZ=   -1.3431   -4.3377  -10.0627 Q=    0.4100 A=    0.0000 R=    0.0000 C=    0.0000
 XYZ=   -2.1054   -3.6998  -11.3583 Q=    0.4100 A=    0.0000 R=    0.0000 C=    0.0000
 XYZ=    4.9878   -5.8197   -9.0840 Q=   -0.8200 A=    0.0000 R=    0.0000 C=    0.0000
 XYZ=    5.3106   -6.5607   -9.6729 Q=    0.4100 A=    0.0000 R=    0.0000 C=    0.0000
 XYZ=    4.9418   -4.9711   -9.6111 Q=    0.4100 A=    0.0000 R=    0.0000 C=    0.0000
 XYZ=    9.1665    3.4849    1.4253 Q=   -0.8200 A=    0.0000 R=    0.0000 C=    0.0000
 XYZ=    8.8284    3.9164    2.2617 Q=    0.4100 A=    0.0000 R=    0.0000 C=    0.0000
 XYZ=    9.8461    4.0790    0.9950 Q=    0.4100 A=    0.0000 R=    0.0000 C=    0.0000
 XYZ=   -2.5662   -7.0209   -9.4002 Q=   -0.8200 A=    0.0000 R=    0.0000 C=    0.0000
 XYZ=   -3.1691   -6.4138   -9.9179 Q=    0.4100 A=    0.0000 R=    0.0000 C=    0.0000
 XYZ=   -2.1895   -6.5273   -8.6163 Q=    0.4100 A=    0.0000 R=    0.0000 C=    0.0000
 XYZ=   -8.6843    4.8526    5.6098 Q=   -0.8200 A=    0.0000 R=    0.0000 C=    0.0000
 XYZ=   -8.1932    3.9987    5.7821 Q=    0.4100 A=    0.0000 R=    0.0000 C=    0.0000
 XYZ=   -8.2402    5.5985    6.1062 Q=    0.4100 A=    0.0000 R=    0.0000 C=    0.0000
 XYZ=    0.3948    4.7408   10.1643 Q=   -0.8200 A=    0.0000 R=    0.0000 C=    0.0000
 XYZ=   -0.1710    4.9533   10.9610 Q=    0.4100 A=    0.0000 R=    0.0000 C=    0.0000
 XYZ=    0.6154    3.7654   10.1628 Q=    0.4100 A=    0.0000 R=    0.0000 C=    0.0000
 XYZ=   -6.8275   -3.9536   -7.2359 Q=   -0.8200 A=    0.0000 R=    0.0000 C=    0.0000
 XYZ=   -6.4941   -4.3155   -8.1065 Q=    0.4100 A=    0.0000 R=    0.0000 C=    0.0000
 XYZ=   -7.4845   -3.2200   -7.4096 Q=    0.4100 A=    0.0000 R=    0.0000 C=    0.0000
 XYZ=   -3.2328    4.8861   10.4737 Q=   -0.8200 A=    0.0000 R=    0.0000 C=    0.0000
 XYZ=   -3.5724    5.7893   10.2112 Q=    0.4100 A=    0.0000 R=    0.0000 C=    0.0000
 XYZ=   -3.0729    4.3384    9.6523 Q=    0.4100 A=    0.0000 R=    0.0000 C=    0.0000
 XYZ=   -5.7543    3.0704   -9.9433 Q=   -0.8200 A=    0.0000 R=    0.0000 C=    0.0000
 XYZ=   -6.3486    2.2850  -10.1168 Q=    0.4100 A=    0.0000 R=    0.0000 C=    0.0000
 XYZ=   -4.8026    2.7658   -9.9036 Q=    0.4100 A=    0.0000 R=    0.0000 C=    0.0000
 XYZ=   -6.5944   -7.2111    5.3581 Q=   -0.8200 A=    0.0000 R=    0.0000 C=    0.0000
 XYZ=   -6.0315   -6.5925    4.8100 Q=    0.4100 A=    0.0000 R=    0.0000 C=    0.0000
 XYZ=   -7.3500   -6.6997    5.7675 Q=    0.4100 A=    0.0000 R=    0.0000 C=    0.0000
 XYZ=   -2.9941   -9.7686   -5.7282 Q=   -0.8200 A=    0.0000 R=    0.0000 C=    0.0000
 XYZ=   -3.1277   -8.7777   -5.7096 Q=    0.4100 A=    0.0000 R=    0.0000 C=    0.0000
 XYZ=   -3.2367  -10.1207   -6.6322 Q=    0.4100 A=    0.0000 R=    0.0000 C=    0.0000
 XYZ=    9.3000   -7.9188   -0.7123 Q=   -0.8200 A=    0.0000 R=    0.0000 C=    0.0000
 XYZ=    8.4332   -8.1166   -0.2543 Q=    0.4100 A=    0.0000 R=    0.0000 C=    0.0000
 XYZ=   10.0231   -8.4844   -0.3157 Q=    0.4100 A=    0.0000 R=    0.0000 C=    0.0000
 XYZ=   -3.3184  -10.1075    3.4674 Q=   -0.8200 A=    0.0000 R=    0.0000 C=    0.0000
 XYZ=   -2.5246   -9.5487    3.7077 Q=    0.4100 A=    0.0000 R=    0.0000 C=    0.0000
 XYZ=   -3.7409   -9.7463    2.6361 Q=    0.4100 A=    0.0000 R=    0.0000 C=    0.0000
 XYZ=    6.6757    7.4102    1.3661 Q=   -0.8200 A=    0.0000 R=    0.0000 C=    0.0000
 XYZ=    7.0502    8.3110    1.5861 Q=    0.4100 A=    0.0000 R=    0.0000 C=    0.0000
 XYZ=    6.5513    6.8862    2.2087 Q=    0.4100 A=    0.0000 R=    0.0000 C=    0.0000
 XYZ=   -9.4411   -2.3440    5.1846 Q=   -0.8200 A=    0.0000 R=    0.0000 C=    0.0000
 XYZ=   -9.2882   -2.1321    4.2194 Q=    0.4100 A=    0.0000 R=    0.0000 C=    0.0000
 XYZ=  -10.2181   -2.9677    5.2699 Q=    0.4100 A=    0.0000 R=    0.0000 C=    0.0000
 XYZ=   -5.5397   10.4058    0.2929 Q=   -0.8200 A=    0.0000 R=    0.0000 C=    0.0000
 XYZ=   -6.1033   11.1156   -0.1298 Q=    0.4100 A=    0.0000 R=    0.0000 C=    0.0000
 XYZ=   -6.1306    9.7251    0.7261 Q=    0.4100 A=    0.0000 R=    0.0000 C=    0.0000
 XYZ=  -11.1813    1.4741   -0.8773 Q=   -0.8200 A=    0.0000 R=    0.0000 C=    0.0000
 XYZ=  -12.1796    1.4201   -0.8559 Q=    0.4100 A=    0.0000 R=    0.0000 C=    0.0000
 XYZ=  -10.8879    2.3627   -0.5247 Q=    0.4100 A=    0.0000 R=    0.0000 C=    0.0000
 XYZ=    3.5592    3.0696    9.6852 Q=   -0.8200 A=    0.0000 R=    0.0000 C=    0.0000
 XYZ=    4.2640    2.8072   10.3444 Q=    0.4100 A=    0.0000 R=    0.0000 C=    0.0000
 XYZ=    3.6616    4.0374    9.4553 Q=    0.4100 A=    0.0000 R=    0.0000 C=    0.0000
 XYZ=   -5.4723   10.3617   -4.2846 Q=   -0.8200 A=    0.0000 R=    0.0000 C=    0.0000
 XYZ=   -4.9274    9.7189   -3.7461 Q=    0.4100 A=    0.0000 R=    0.0000 C=    0.0000
 XYZ=   -4.9721   10.6089   -5.1145 Q=    0.4100 A=    0.0000 R=    0.0000 C=    0.0000
 XYZ=    3.9812    5.3117    9.2545 Q=   -0.8200 A=    0.0000 R=    0.0000 C=    0.0000
 XYZ=    4.6924    5.7263    9.8224 Q=    0.4100 A=    0.0000 R=    0.0000 C=    0.0000
 XYZ=    4.3072    5.2399    8.3118 Q=    0.4100 A=    0.0000 R=    0.0000 C=    0.0000
 XYZ=  -11.0779   -1.1462    1.8639 Q=   -0.8200 A=    0.0000 R=    0.0000 C=    0.0000
 XYZ=  -10.8441   -1.0015    0.9024 Q=    0.4100 A=    0.0000 R=    0.0000 C=    0.0000
 XYZ=  -10.2538   -1.3931    2.3738 Q=    0.4100 A=    0.0000 R=    0.0000 C=    0.0000
 XYZ=    4.4150   -1.2981    9.7188 Q=   -0.8200 A=    0.0000 R=    0.0000 C=    0.0000
 XYZ=    5.1425   -0.7975    9.2495 Q=    0.4100 A=    0.0000 R=    0.0000 C=    0.0000
 XYZ=    4.8195   -1.9566   10.3535 Q=    0.4100 A=    0.0000 R=    0.0000 C=    0.0000
 XYZ=    0.1533   11.2764    3.1247 Q=   -0.8200 A=    0.0000 R=    0.0000 C=    0.0000
 XYZ=    0.1244   10.3613    3.5271 Q=    0.4100 A=    0.0000 R=    0.0000 C=    0.0000
 XYZ=    0.1924   11.2012    2.1283 Q=    0.4100 A=    0.0000 R=    0.0000 C=    0.0000
 XYZ=   -2.9227   -7.3235    6.9009 Q=   -0.8200 A=    0.0000 R=    0.0000 C=    0.0000
 XYZ=   -2.6708   -7.0064    7.8153 Q=    0.4100 A=    0.0000 R=    0.0000 C=    0.0000
 XYZ=   -3.7770   -7.8409    6.9512 Q=    0.4100 A=    0.0000 R=    0.0000 C=    0.0000
 XYZ=   -7.1809    9.1195    1.3845 Q=   -0.8200 A=    0.0000 R=    0.0000 C=    0.0000
 XYZ=   -7.9020    9.6706    0.9645 Q=    0.4100 A=    0.0000 R=    0.0000 C=    0.0000
 XYZ=   -7.5423    8.6601    2.1958 Q=    0.4100 A=    0.0000 R=    0.0000 C=    0.0000
 XYZ=  -10.7030    1.5791   -3.2894 Q=   -0.8200 A=    0.0000 R=    0.0000 C=    0.0000
 XYZ=  -10.9302    1.4623   -2.3226 Q=    0.4100 A=    0.0000 R=    0.0000 C=    0.0000
 XYZ=  -11.4234    1.1740   -3.8524 Q=    0.4100 A=    0.0000 R=    0.0000 C=    0.0000
 XYZ=   -4.2604   10.5448    2.2749 Q=   -0.8200 A=    0.0000 R=    0.0000 C=    0.0000
 XYZ=   -4.8203   11.0673    2.9180 Q=    0.4100 A=    0.0000 R=    0.0000 C=    0.0000
 XYZ=   -4.6123   10.6715    1.3474 Q=    0.4100 A=    0.0000 R=    0.0000 C=    0.0000
 XYZ=   -2.7616    3.5660  -11.6946 Q=   -0.8200 A=    0.0000 R=    0.0000 C=    0.0000
 XYZ=   -3.1439    3.0192  -10.9497 Q=    0.4100 A=    0.0000 R=    0.0000 C=    0.0000
 XYZ=   -2.1411    3.0009  -12.2384 Q=    0.4100 A=    0.0000 R=    0.0000 C=    0.0000
 XYZ=    7.0446    4.8140   -7.2899 Q=   -0.8200 A=    0.0000 R=    0.0000 C=    0.0000
 XYZ=    7.9276    5.2462   -7.4730 Q=    0.4100 A=    0.0000 R=    0.0000 C=    0.0000
 XYZ=    6.3110    5.4755   -7.4458 Q=    0.4100 A=    0.0000 R=    0.0000 C=    0.0000
 XYZ=   -2.0048   -6.3736    9.0063 Q=   -0.8200 A=    0.0000 R=    0.0000 C=    0.0000
 XYZ=   -1.1363   -5.8807    8.9535 Q=    0.4100 A=    0.0000 R=    0.0000 C=    0.0000
 XYZ=   -2.7513   -5.7207    9.1348 Q=    0.4100 A=    0.0000 R=    0.0000 C=    0.0000
 XYZ=    8.3523   -8.8653    3.6850 Q=   -0.8200 A=    0.0000 R=    0.0000 C=    0.0000
 XYZ=    7.7188   -8.1427    3.4081 Q=    0.4100 A=    0.0000 R=    0.0000 C=    0.0000
 XYZ=    7.8686   -9.5343    4.2494 Q=    0.4100 A=    0.0000 R=    0.0000 C=    0.0000
 XYZ=   -6.5117    4.7100    8.9513 Q=   -0.8200 A=    0.0000 R=    0.0000 C=    0.0000
 XYZ=   -7.1424    5.4658    9.1275 Q=    0.4100 A=    0.0000 R=    0.0000 C=    0.0000
 XYZ=   -5.7756    5.0231    8.3513 Q=    0.4100 A=    0.0000 R=    0.0000 C=    0.0000
 XYZ=   11.3646   -5.4360    0.5526 Q=   -0.8200 A=    0.0000 R=    0.0000 C=    0.0000
 XYZ=   10.6391   -5.4876   -0.1337 Q=    0.4100 A=    0.0000 R=    0.0000 C=    0.0000
 XYZ=   11.4753   -6.3292    0.9884 Q=    0.4100 A=    0.0000 R=    0.0000 C=    0.0000
 XYZ=   -8.9171   -6.5372    2.4684 Q=   -0.8200 A=    0.0000 R=    0.0000 C=    0.0000
 XYZ=   -9.5996   -6.5592    1.7378 Q=    0.4100 A=    0.0000 R=    0.0000 C=    0.0000
 XYZ=   -8.3152   -5.7492    2.3385 Q=    0.4100 A=    0.0000 R=    0.0000 C=    0.0000
 XYZ=    0.2861    9.2287    7.8025 Q=   -0.8200 A=    0.0000 R=    0.0000 C=    0.0000
 XYZ=    0.2343    8.6044    7.0229 Q=    0.4100 A=    0.0000 R=    0.0000 C=    0.0000
 XYZ=    1.2449    9.4149    8.0171 Q=    0.4100 A=    0.0000 R=    0.0000 C=    0.0000
 XYZ=   -1.6856  -11.3639   -4.5680 Q=   -0.8200 A=    0.0000 R=    0.0000 C=    0.0000
 XYZ=   -1.0790  -10.9509   -3.8886 Q=    0.4100 A=    0.0000 R=    0.0000 C=    0.0000
 XYZ=   -2.2944  -10.6635   -4.9407 Q=    0.4100 A=    0.0000 R=    0.0000 C=    0.0000
 XYZ=   -0.5986   -6.9755  -10.5599 Q=   -0.8200 A=    0.0000 R=    0.0000 C=    0.0000
 XYZ=   -1.4286   -7.3334  -10.1321 Q=    0.4100 A=    0.0000 R=    0.0000 C=    0.0000
 XYZ=   -0.4200   -6.0521  -10.2201 Q=    0.4100 A=    0.0000 R=    0.0000 C=    0.0000
 XYZ=   -2.8756  -10.5904    0.4264 Q=   -0.8200 A=    0.0000 R=    0.0000 C=    0.0000
 XYZ=   -2.2087  -11.2948    0.6698 Q=    0.4100 A=    0.0000 R=    0.0000 C=    0.0000
 XYZ=   -3.5470  -10.9723   -0.2088 Q=    0.4100 A=    0.0000 R=    0.0000 C=    0.0000
 XYZ=   10.1603    4.5769   -2.7848 Q=   -0.8200 A=    0.0000 R=    0.0000 C=    0.0000
 XYZ=   10.6613    5.0547   -2.0632 Q=    0.4100 A=    0.0000 R=    0.0000 C=    0.0000
 XYZ=   10.1729    3.5933   -2.6041 Q=    0.4100 A=    0.0000 R=    0.0000 C=    0.0000
 XYZ=   -8.1924   -5.7702    5.9830 Q=   -0.8200 A=    0.0000 R=    0.0000 C=    0.0000
 XYZ=   -9.0530   -6.0797    5.5787 Q=    0.4100 A=    0.0000 R=    0.0000 C=    0.0000
 XYZ=   -7.9975   -4.8378    5.6785 Q=    0.4100 A=    0.0000 R=    0.0000 C=    0.0000
 XYZ=   -1.3580   -3.4612   10.6845 Q=   -0.8200 A=    0.0000 R=    0.0000 C=    0.0000
 XYZ=   -0.6698   -4.1780   10.5727 Q=    0.4100 A=    0.0000 R=    0.0000 C=    0.0000
 XYZ=   -2.1463   -3.8299   11.1772 Q=    0.4100 A=    0.0000 R=    0.0000 C=    0.0000
 XYZ=   -0.7153    2.1322  -12.4967 Q=   -0.8200 A=    0.0000 R=    0.0000 C=    0.0000
 XYZ=   -0.0809    2.5888  -11.8728 Q=    0.4100 A=    0.0000 R=    0.0000 C=    0.0000
 XYZ=   -0.8012    1.1698  -12.2391 Q=    0.4100 A=    0.0000 R=    0.0000 C=    0.0000
 XYZ=    0.3491   -9.9069   -8.7949 Q=   -0.8200 A=    0.0000 R=    0.0000 C=    0.0000
 XYZ=    0.3093   -9.4653   -9.6913 Q=    0.4100 A=    0.0000 R=    0.0000 C=    0.0000
 XYZ=    0.4526   -9.2106   -8.0846 Q=    0.4100 A=    0.0000 R=    0.0000 C=    0.0000
 XYZ=   -9.8475    3.5717   -6.7790 Q=   -0.8200 A=    0.0000 R=    0.0000 C=    0.0000
 XYZ=  -10.0708    4.2600   -7.4692 Q=    0.4100 A=    0.0000 R=    0.0000 C=    0.0000
 XYZ=   -8.8550    3.4614   -6.7271 Q=    0.4100 A=    0.0000 R=    0.0000 C=    0.0000
 XYZ=   -6.5113    4.8321   -8.4892 Q=   -0.8200 A=    0.0000 R=    0.0000 C=    0.0000
 XYZ=   -6.8547    5.6258   -8.9913 Q=    0.4100 A=    0.0000 R=    0.0000 C=    0.0000
 XYZ=   -6.2376    4.1210   -9.1368 Q=    0.4100 A=    0.0000 R=    0.0000 C=    0.0000
 XYZ=   11.2570   -2.6846    3.6964 Q=   -0.8200 A=    0.0000 R=    0.0000 C=    0.0000
 XYZ=   10.8202   -3.3390    3.0792 Q=    0.4100 A=    0.0000 R=    0.0000 C=    0.0000
 XYZ=   10.7268   -2.6187    4.5418 Q=    0.4100 A=    0.0000 R=    0.0000 C=    0.0000
 XYZ=   -4.0388   -4.9261    9.3053 Q=   -0.8200 A=    0.0000 R=    0.0000 C=    0.0000
 XYZ=   -4.8226   -5.5419    9.3855 Q=    0.4100 A=    0.0000 R=    0.0000 C=    0.0000
 XYZ=   -3.6371   -4.7785   10.2091 Q=    0.4100 A=    0.0000 R=    0.0000 C=    0.0000
 XYZ=   -2.9881    7.0024   -9.3050 Q=   -0.8200 A=    0.0000 R=    0.0000 C=    0.0000
 XYZ=   -2.6720    7.9503   -9.3439 Q=    0.4100 A=    0.0000 R=    0.0000 C=    0.0000
 XYZ=   -2.3668    6.4220   -9.8315 Q=    0.4100 A=    0.0000 R=    0.0000 C=    0.0000
 XYZ=   -6.0430   -8.6224    0.4501 Q=   -0.8200 A=    0.0000 R=    0.0000 C=    0.0000
 XYZ=   -6.7830   -8.6318    1.1227 Q=    0.4100 A=    0.0000 R=    0.0000 C=    0.0000
 XYZ=   -6.2378   -9.2894   -0.2691 Q=    0.4100 A=    0.0000 R=    0.0000 C=    0.0000
 XYZ=   -6.5246   -7.9829   -3.6286 Q=   -0.8200 A=    0.0000 R=    0.0000 C=    0.0000
 XYZ=   -6.8481   -7.4304   -2.8603 Q=    0.4100 A=    0.0000 R=    0.0000 C=    0.0000
 XYZ=   -7.1748   -8.7220   -3.8047 Q=    0.4100 A=    0.0000 R=    0.0000 C=    0.0000
 XYZ=   -4.0437    7.0117    9.6283 Q=   -0.8200 A=    0.0000 R=    0.0000 C=    0.0000
 XYZ=   -4.1742    6.5618    8.7449 Q=    0.4100 A=    0.0000 R=    0.0000 C=    0.0000
 XYZ=   -4.9194    7.3694    9.9528 Q=    0.4100 A=    0.0000 R=    0.0000 C=    0.0000
 XYZ=  -10.5844    3.7847   -4.4237 Q=   -0.8200 A=    0.0000 R=    0.0000 C=    0.0000
 XYZ=  -10.2661    3.6765   -5.3656 Q=    0.4100 A=    0.0000 R=    0.0000 C=    0.0000
 XYZ=  -10.7919    2.8862   -4.0368 Q=    0.4100 A=    0.0000 R=    0.0000 C=    0.0000
 XYZ=   -7.6980    2.7562    8.4243 Q=   -0.8200 A=    0.0000 R=    0.0000 C=    0.0000
 XYZ=   -7.8358    2.2078    9.2491 Q=    0.4100 A=    0.0000 R=    0.0000 C=    0.0000
 XYZ=   -7.1091    3.5360    8.6371 Q=    0.4100 A=    0.0000 R=    0.0000 C=    0.0000
 XYZ=    7.6524    7.3363    5.0266 Q=   -0.8200 A=    0.0000 R=    0.0000 C=    0.0000
 XYZ=    8.5492    6.8962    5.0736 Q=    0.4100 A=    0.0000 R=    0.0000 C=    0.0000
 XYZ=    7.0579    6.8165    4.4130 Q=    0.4100 A=    0.0000 R=    0.0000 C=    0.0000
 XYZ=    9.8237   -8.1437   -3.0629 Q=   -0.8200 A=    0.0000 R=    0.0000 C=    0.0000
 XYZ=    9.4748   -8.1959   -2.1271 Q=    0.4100 A=    0.0000 R=    0.0000 C=    0.0000
 XYZ=   10.7757   -8.4493   -3.0812 Q=    0.4100 A=    0.0000 R=    0.0000 C=    0.0000
 XYZ=    7.5699    7.9691   -5.0752 Q=   -0.8200 A=    0.0000 R=    0.0000 C=    0.0000
 XYZ=    7.2593    7.0460   -4.8484 Q=    0.4100 A=    0.0000 R=    0.0000 C=    0.0000
 XYZ=    7.9357    8.4086   -4.2547 Q=    0.4100 A=    0.0000 R=    0.0000 C=    0.0000
 XYZ=   -3.9400   -5.2885  -10.6982 Q=   -0.8200 A=    0.0000 R=    0.0000 C=    0.0000
 XYZ=   -4.2062   -5.3043  -11.6620 Q=    0.4100 A=    0.0000 R=    0.0000 C=    0.0000
 XYZ=   -3.1689   -4.6636  -10.5756 Q=    0.4100 A=    0.0000 R=    0.0000 C=    0.0000
 XYZ=   -7.4709    6.7564    6.3064 Q=   -0.8200 A=    0.0000 R=    0.0000 C=    0.0000
 XYZ=   -7.2963    7.6308    5.8535 Q=    0.4100 A=    0.0000 R=    0.0000 C=    0.0000
 XYZ=   -7.5527    6.9022    7.2923 Q=    0.4100 A=    0.0000 R=    0.0000 C=    0.0000
 XYZ=   11.9869    1.5685    2.8367 Q=   -0.8200 A=    0.0000 R=    0.0000 C=    0.0000
 XYZ=   12.5264    0.7287    2.8975 Q=    0.4100 A=    0.0000 R=    0.0000 C=    0.0000
 XYZ=   11.0439    1.3419    2.5926 Q=    0.4100 A=    0.0000 R=    0.0000 C=    0.0000
 XYZ=   -6.0117   -6.9916   -7.9562 Q=   -0.8200 A=    0.0000 R=    0.0000 C=    0.0000
 XYZ=   -5.4527   -7.7153   -8.3610 Q=    0.4100 A=    0.0000 R=    0.0000 C=    0.0000
 XYZ=   -5.8195   -6.9306   -6.9767 Q=    0.4100 A=    0.0000 R=    0.0000 C=    0.0000
 XYZ=  -11.2071    2.8944    2.8935 Q=   -0.8200 A=    0.0000 R=    0.0000 C=    0.0000
 XYZ=  -12.1227    3.1783    2.6084 Q=    0.4100 A=    0.0000 R=    0.0000 C=    0.0000
 XYZ=  -11.2271    1.9334    3.1695 Q=    0.4100 A=    0.0000 R=    0.0000 C=    0.0000
 XYZ=    0.6802    2.0095   12.4637 Q=   -0.8200 A=    0.0000 R=    0.0000 C=    0.0000
 XYZ=    1.0403    2.1985   11.5501 Q=    0.4100 A=    0.0000 R=    0.0000 C=    0.0000
 XYZ=    0.9103    1.0720   12.7252 Q=    0.4100 A=    0.0000 R=    0.0000 C=    0.0000
 XYZ=    3.2705   -0.8222   11.7981 Q=   -0.8200 A=    0.0000 R=    0.0000 C=    0.0000
 XYZ=    3.7129   -0.9500   10.9104 Q=    0.4100 A=    0.0000 R=    0.0000 C=    0.0000
 XYZ=    3.8400   -0.2345   12.3728 Q=    0.4100 A=    0.0000 R=    0.0000 C=    0.0000
 XYZ=   -0.4025   -1.9842   12.1995 Q=   -0.8200 A=    0.0000 R=    0.0000 C=    0.0000
 XYZ=   -0.8393   -2.5211   11.4776 Q=    0.4100 A=    0.0000 R=    0.0000 C=    0.0000
 XYZ=   -1.0829   -1.3937   12.6336 Q=    0.4100 A=    0.0000 R=    0.0000 C=    0.0000
 XYZ=  -12.4933   -0.9408   -1.4476 Q=   -0.8200 A=    0.0000 R=    0.0000 C=    0.0000
 XYZ=  -12.9061   -0.0327   -1.3770 Q=    0.4100 A=    0.0000 R=    0.0000 C=    0.0000
 XYZ=  -11.5575   -0.9098   -1.0962 Q=    0.4100 A=    0.0000 R=    0.0000 C=    0.0000
 XYZ=   -7.0060    1.2510  -10.6988 Q=   -0.8200 A=    0.0000 R=    0.0000 C=    0.0000
 XYZ=   -7.1112    0.6967   -9.8731 Q=    0.4100 A=    0.0000 R=    0.0000 C=    0.0000
 XYZ=   -7.8518    1.2192  -11.2315 Q=    0.4100 A=    0.0000 R=    0.0000 C=    0.0000
 XYZ=   -3.8878   10.8610   -6.3725 Q=   -0.8200 A=    0.0000 R=    0.0000 C=    0.0000
 XYZ=   -3.3920   10.2212   -5.7854 Q=    0.4100 A=    0.0000 R=    0.0000 C=    0.0000
 XYZ=   -3.3764   11.7179   -6.4383 Q=    0.4100 A=    0.0000 R=    0.0000 C=    0.0000
 XYZ=   -5.1848    9.7648    5.1459 Q=   -0.8200 A=    0.0000 R=    0.0000 C=    0.0000
 XYZ=   -4.4624   10.1242    5.7367 Q=    0.4100 A=    0.0000 R=    0.0000 C=    0.0000
 XYZ=   -5.6281   10.5206    4.6640 Q=    0.4100 A=    0.0000 R=    0.0000 C=    0.0000
[...]
    39  O    0.000000   0.000000   0.000000   0.000000   0.000000   0.000000
    40  H    0.000000   0.000000   0.000000   0.000000   0.000000   0.000000
    41  H    0.000000   0.000000   0.000000   0.000000   0.000000   0.000000
    42  O    0.000109   0.000073   0.000000   0.000000   0.000000   0.000000
    43  H   -0.000066  -0.000003   0.000000   0.000000   0.000000   0.000000
    44  H    0.000070  -0.000035   0.000000   0.000000   0.000000   0.000000
    45  O    0.000000   0.000000   0.000000   0.000000   0.000000   0.000000
    46  H    0.000000   0.000000   0.000000   0.000000   0.000000   0.000000
    47  H    0.000000   0.000000   0.000000   0.000000   0.000000   0.000000
    48  O   -0.000110  -0.000071   0.000000   0.000000   0.000000   0.000000
    49  H   -0.000045   0.000003   0.000000   0.000000   0.000000   0.000000
    50  H    0.000001   0.000000   0.000000   0.000000   0.000000   0.000000
              31         32         33         34         35         36
     1  C   -0.000045  -0.000300  -0.000072   0.000007  -0.000143  -0.000056
     2  H    0.000000   0.000000  -0.000006   0.000000  -0.000001   0.000003
     3  H    0.000000   0.000000   0.000000   0.000000   0.000001   0.000000
     4  C    0.001427  -0.002136  -0.001229   0.000031   0.000229  -0.004837
     5  H   -0.000020  -0.000003   0.000000   0.000000   0.000000   0.000001
     6  C   -0.000977   0.001798   0.000080  -0.000018   0.000048  -0.001181
     7  H    0.000000  -0.000001   0.000000   0.000000   0.000000   0.000047
     8  O    0.000000   0.000000  -0.000002   0.000000  -0.000001  -0.006401
     9  O    0.000000   0.000000   0.000000   0.000000   0.000000   0.014583
    10  H    0.000000   0.000000   0.000000   0.000000   0.000000  -0.001414
    11  H    0.000000   0.000000   0.000000   0.000000   0.000000  -0.002574
    12  O    0.000000   0.000000   0.000000   0.000000   0.000000  -0.000672
    13  H    0.000000   0.000000   0.000000   0.000000   0.000000   0.000000
    14  H    0.000000   0.000000   0.000000   0.000000   0.000000   0.000246
    15  O    0.000989   0.000427   0.000000   0.000000   0.000000   0.000000
    16  H   -0.000014   0.000048   0.000000   0.000000   0.000000   0.000000
    17  H    0.000344  -0.001992   0.000000   0.000000   0.000000   0.000000
    18  O    0.000000   0.000000   0.000000   0.000000   0.000000  -0.084488
    19  H    0.000000   0.000000   0.000000   0.000000   0.000000  -0.003588
    20  H    0.000000   0.000000   0.000000   0.000000   0.000000   0.000738
    21  O    0.000000   0.000000  -0.000004   0.000001   0.000000  -0.007996
    22  H    0.000000   0.000000   0.000000   0.000000   0.000000   0.010290
    23  H    0.000000   0.000000   0.000000   0.000000   0.000000  -0.000383
    24  O   -0.000001   0.000030   0.000000   0.000000   0.000000  -0.000002
    25  H    0.000000   0.000000   0.000000   0.000000   0.000000   0.000000
    26  H    0.000000  -0.000004   0.000000   0.000000   0.000000   0.000000
    27  O    0.000000   0.000000   0.000000   0.000000   0.000000  -0.000572
    28  H    0.000000   0.000000   0.000000   0.000000   0.000000  -0.000075
    29  H    0.000000   0.000000   0.000000   0.000000   0.000000  -0.001091
    30  O    0.221139   0.214413   0.000000   0.000000   0.000000   0.000000
    31  H    0.221686  -0.006892   0.000000   0.000000   0.000000   0.000000
    32  H   -0.006892   0.173522   0.000000   0.000000   0.000000   0.000000
    33  O    0.000000   0.000000   8.937829   0.217651   0.165478   0.000000
    34  H    0.000000   0.000000   0.217651   0.278437  -0.009220   0.000000
    35  H    0.000000   0.000000   0.165478  -0.009220   0.192962   0.000000
    36  O    0.000000   0.000000   0.000000   0.000000   0.000000   9.101937
    37  H    0.000000   0.000000   0.000000   0.000000   0.000000   0.184699
    38  H    0.000000   0.000000   0.000000   0.000000   0.000000   0.096931
    39  O    0.000000   0.000000  -0.154834   0.008753   0.014210   0.000000
    40  H    0.000000   0.000000   0.003847   0.000121   0.002133   0.000000
    41  H    0.000000   0.000000   0.002944  -0.000441  -0.000930   0.000000
    42  O    0.000000   0.000000   0.000003   0.000000   0.000000   0.000013
    43  H    0.000000   0.000000   0.000000   0.000000   0.000000   0.000000
    44  H    0.000000   0.000000   0.000000   0.000000   0.000000  -0.000023
    45  O    0.000000   0.000000  -0.001558   0.000101   0.000193   0.000000
    46  H    0.000000   0.000000   0.000012   0.000000   0.000008   0.000000
    47  H    0.000000   0.000000  -0.000008   0.000000   0.000009   0.000000
    48  O    0.000000   0.000000   0.000072   0.000006  -0.000017   0.000001
    49  H    0.000000   0.000000   0.000000   0.000000   0.000000   0.000000
    50  H    0.000000   0.000000  -0.000026  -0.000002   0.000018   0.000000
              37         38         39         40         41         42
     1  C    0.000213   0.000086  -0.008931   0.000213  -0.000370   0.003182
     2  H    0.000000   0.000000  -0.000105   0.000004   0.000000  -0.000147
     3  H    0.000000   0.000000  -0.000082   0.000002   0.000002  -0.000004
     4  C    0.000363   0.001048   0.007528  -0.000159  -0.000264  -0.010998
     5  H    0.000000   0.000000  -0.000001   0.000000   0.000000  -0.000001
     6  C    0.001014   0.000095   0.000167  -0.000040   0.000064   0.006896
     7  H   -0.000001  -0.000033   0.000000   0.000000   0.000000  -0.000006
     8  O    0.000767   0.003098   0.000016   0.000000   0.000000  -0.003053
     9  O   -0.002203  -0.004839   0.000000   0.000000   0.000000  -0.000018
    10  H   -0.000015   0.000057   0.000000   0.000000   0.000000   0.000003
    11  H   -0.000048  -0.000115   0.000000   0.000000   0.000000   0.000002
    12  O   -0.000025   0.000017  -0.000004   0.000000   0.000000  -0.067105
    13  H    0.000000   0.000000   0.000000   0.000000   0.000000   0.003048
    14  H   -0.000024  -0.000016   0.000000   0.000000   0.000000   0.004935
    15  O    0.000000   0.000000  -0.000002   0.000000   0.000000   0.000210
    16  H    0.000000   0.000000   0.000000   0.000000   0.000000  -0.000004
    17  H    0.000000   0.000000   0.000000   0.000000   0.000000   0.000000
    18  O   -0.001962   0.014424   0.000000   0.000000   0.000000  -0.000018
    19  H    0.000309   0.004992   0.000000   0.000000   0.000000   0.000000
    20  H    0.000065  -0.000776   0.000000   0.000000   0.000000   0.000000
    21  O   -0.000563   0.002929   0.000001   0.000000   0.000000   0.000003
    22  H   -0.000267   0.005327   0.000000   0.000000   0.000000   0.000001
    23  H   -0.000071   0.000117   0.000000   0.000000   0.000000   0.000000
    24  O    0.000000   0.000000  -0.000002   0.000000   0.000000  -0.004487
    25  H    0.000000   0.000000   0.000000   0.000000   0.000000   0.000109
    26  H    0.000000   0.000000   0.000000   0.000000   0.000000   0.000073
    27  O   -0.000002  -0.000077   0.000000   0.000000   0.000000   0.000000
    28  H    0.000000   0.000005   0.000000   0.000000   0.000000   0.000000
    29  H    0.000004   0.000033   0.000000   0.000000   0.000000   0.000000
    30  O    0.000000   0.000000   0.000000   0.000000   0.000000   0.000000
    31  H    0.000000   0.000000   0.000000   0.000000   0.000000   0.000000
    32  H    0.000000   0.000000   0.000000   0.000000   0.000000   0.000000
    33  O    0.000000   0.000000  -0.154834   0.003847   0.002944   0.000003
    34  H    0.000000   0.000000   0.008753   0.000121  -0.000441   0.000000
    35  H    0.000000   0.000000   0.014210   0.002133  -0.000930   0.000000
    36  O    0.184699   0.096931   0.000000   0.000000   0.000000   0.000013
    37  H    0.176438   0.000535   0.000000   0.000000   0.000000  -0.000004
    38  H    0.000535   0.263769   0.000000   0.000000   0.000000   0.000002
    39  O    0.000000   0.000000   9.032176   0.176168   0.217217   0.000012
    40  H    0.000000   0.000000   0.176168   0.191793  -0.008645   0.000000
    41  H    0.000000   0.000000   0.217217  -0.008645   0.187583   0.000001
    42  O   -0.000004   0.000002   0.000012   0.000000   0.000001   9.062914
    43  H    0.000000   0.000000  -0.000004   0.000000   0.000000   0.162181
    44  H    0.000004   0.000001   0.000000   0.000000   0.000000   0.142416
    45  O    0.000000   0.000000  -0.085958   0.038543  -0.000146   0.000000
    46  H    0.000000   0.000000   0.000695  -0.001938  -0.000023   0.000000
    47  H    0.000000   0.000000   0.001732  -0.000393  -0.000054   0.000000
    48  O    0.000000   0.000000   0.000872  -0.000031   0.000307  -0.040464
    49  H    0.000000   0.000000  -0.000042  -0.000001  -0.000008  -0.001113
    50  H    0.000000   0.000000   0.000682  -0.000058  -0.000081   0.000540
              43         44         45         46         47         48
     1  C    0.000867   0.002843   0.002297  -0.000262   0.002184  -0.010440
     2  H    0.000042   0.000004  -0.000020   0.000000   0.000000   0.000537
     3  H    0.000000  -0.000003  -0.000142   0.000002   0.000042  -0.000032
     4  C   -0.000769  -0.004213   0.001785   0.000035  -0.000355   0.010922
     5  H    0.000000   0.000000  -0.000001   0.000000   0.000000  -0.000001
     6  C   -0.000042   0.004236  -0.000399   0.000007  -0.000037   0.000065
     7  H    0.000000  -0.000002   0.000000   0.000000   0.000000   0.000000
     8  O   -0.000108  -0.001510   0.000000   0.000000   0.000000  -0.000145
     9  O   -0.000001  -0.000059   0.000000   0.000000   0.000000  -0.000001
    10  H    0.000000   0.000003   0.000000   0.000000   0.000000   0.000000
    11  H    0.000000   0.000001   0.000000   0.000000   0.000000   0.000000
    12  O    0.001851   0.000745   0.000000   0.000000   0.000000  -0.001665
    13  H   -0.000461   0.000477   0.000000   0.000000   0.000000  -0.000029
    14  H   -0.000129   0.003762   0.000000   0.000000   0.000000   0.000095
    15  O   -0.000015   0.000017  -0.000004   0.000000   0.000000  -0.000072
    16  H    0.000000   0.000000   0.000000   0.000000   0.000000   0.000001
    17  H    0.000000   0.000000   0.000000   0.000000   0.000000   0.000000
    18  O   -0.000001  -0.000009   0.000000   0.000000   0.000000  -0.000001
    19  H    0.000000   0.000000   0.000000   0.000000   0.000000   0.000000
    20  H    0.000000   0.000000   0.000000   0.000000   0.000000   0.000000
    21  O    0.000000   0.000000   0.000000   0.000000   0.000000   0.000000
    22  H    0.000000   0.000000   0.000000   0.000000   0.000000   0.000000
    23  H    0.000000   0.000000   0.000000   0.000000   0.000000   0.000000
    24  O    0.000176   0.001341   0.000000   0.000000   0.000000   0.002581
    25  H   -0.000066   0.000070   0.000000   0.000000   0.000000  -0.000110
    26  H   -0.000003  -0.000035   0.000000   0.000000   0.000000  -0.000071
    27  O    0.000000   0.000000   0.000000   0.000000   0.000000   0.000000
    28  H    0.000000   0.000000   0.000000   0.000000   0.000000   0.000000
    29  H    0.000000   0.000000   0.000000   0.000000   0.000000   0.000000
    30  O    0.000000   0.000000   0.000000   0.000000   0.000000   0.000000
    31  H    0.000000   0.000000   0.000000   0.000000   0.000000   0.000000
    32  H    0.000000   0.000000   0.000000   0.000000   0.000000   0.000000
    33  O    0.000000   0.000000  -0.001558   0.000012  -0.000008   0.000072
    34  H    0.000000   0.000000   0.000101   0.000000   0.000000   0.000006
    35  H    0.000000   0.000000   0.000193   0.000008   0.000009  -0.000017
    36  O    0.000000  -0.000023   0.000000   0.000000   0.000000   0.000001
    37  H    0.000000   0.000004   0.000000   0.000000   0.000000   0.000000
    38  H    0.000000   0.000001   0.000000   0.000000   0.000000   0.000000
    39  O   -0.000004   0.000000  -0.085958   0.000695   0.001732   0.000872
    40  H    0.000000   0.000000   0.038543  -0.001938  -0.000393  -0.000031
    41  H    0.000000   0.000000  -0.000146  -0.000023  -0.000054   0.000307
    42  O    0.162181   0.142416   0.000000   0.000000   0.000000  -0.040464
    43  H    0.248227  -0.001141   0.000000   0.000000   0.000000  -0.012211
    44  H   -0.001141   0.209380   0.000000   0.000000   0.000000   0.001106
    45  O    0.000000   0.000000   8.690396   0.212009   0.235811  -0.000188
    46  H    0.000000   0.000000   0.212009   0.163792  -0.009240   0.000000
    47  H    0.000000   0.000000   0.235811  -0.009240   0.268470   0.000001
    48  O   -0.012211   0.001106  -0.000188   0.000000   0.000001   8.832374
    49  H   -0.000469  -0.000005   0.000004   0.000000   0.000000   0.211451
    50  H    0.001501  -0.000048  -0.000026   0.000000   0.000000   0.209031
              49         50
     1  C   -0.000446  -0.000686
     2  H   -0.000014  -0.000007
     3  H   -0.000002  -0.000001
     4  C    0.000294   0.001247
     5  H    0.000000   0.000000
     6  C   -0.000169  -0.000050
     7  H    0.000000   0.000000
     8  O    0.000004   0.000000
     9  O    0.000000   0.000000
    10  H    0.000000   0.000000
    11  H    0.000000   0.000000
    12  O    0.000016   0.000092
    13  H    0.000000  -0.000001
    14  H   -0.000001   0.000000
    15  O   -0.000013   0.000002
    16  H    0.000000   0.000000
    17  H    0.000000   0.000000
    18  O    0.000000   0.000000
    19  H    0.000000   0.000000
    20  H    0.000000   0.000000
    21  O    0.000000   0.000000
    22  H    0.000000   0.000000
    23  H    0.000000   0.000000
    24  O    0.000142  -0.000021
    25  H   -0.000045   0.000001
    26  H    0.000003   0.000000
    27  O    0.000000   0.000000
    28  H    0.000000   0.000000
    29  H    0.000000   0.000000
    30  O    0.000000   0.000000
    31  H    0.000000   0.000000
    32  H    0.000000   0.000000
    33  O    0.000000  -0.000026
    34  H    0.000000  -0.000002
    35  H    0.000000   0.000018
    36  O    0.000000   0.000000
    37  H    0.000000   0.000000
    38  H    0.000000   0.000000
    39  O   -0.000042   0.000682
    40  H   -0.000001  -0.000058
    41  H   -0.000008  -0.000081
    42  O   -0.001113   0.000540
    43  H   -0.000469   0.001501
    44  H   -0.000005  -0.000048
    45  O    0.000004  -0.000026
    46  H    0.000000   0.000000
    47  H    0.000000   0.000000
    48  O    0.211451   0.209031
    49  H    0.184693  -0.008247
    50  H   -0.008247   0.205695
 Mulliken charges:
               1
     1  C   -0.259094
     2  H    0.272325
     3  H    0.213937
     4  C   -0.243026
     5  H    0.227365
     6  C   -0.037618
     7  H    0.201265
     8  O   -0.384073
     9  O   -1.231572
    10  H    0.479589
    11  H    0.713020
    12  O   -1.101776
    13  H    0.586545
    14  H    0.528636
    15  O   -1.130985
    16  H    0.596211
    17  H    0.571584
    18  O   -1.163834
    19  H    0.585736
    20  H    0.679275
    21  O   -1.187983
    22  H    0.574137
    23  H    0.592558
    24  O   -1.276447
    25  H    0.631956
    26  H    0.619194
    27  O   -1.218072
    28  H    0.560860
    29  H    0.645733
    30  O   -1.174978
    31  H    0.562366
    32  H    0.621091
    33  O   -1.170175
    34  H    0.504575
    35  H    0.635023
    36  O   -1.294135
    37  H    0.640772
    38  H    0.612392
    39  O   -1.210264
    40  H    0.598441
    41  H    0.602846
    42  O   -1.259124
    43  H    0.600572
    44  H    0.640639
    45  O   -1.092696
    46  H    0.634904
    47  H    0.501837
    48  O   -1.203946
    49  H    0.613968
    50  H    0.590445
 Sum of Mulliken charges =   0.00000
 Mulliken charges with hydrogens summed into heavy atoms:
               1
     1  C    0.227168
     4  C   -0.015661
     6  C    0.163648
     8  O   -0.384073
     9  O   -0.038962
    12  O    0.013405
    15  O    0.036811
    18  O    0.101177
    21  O   -0.021288
    24  O   -0.025296
    27  O   -0.011480
    30  O    0.008478
    33  O   -0.030577
    36  O   -0.040971
    39  O   -0.008977
    42  O   -0.017913
    45  O    0.044045
    48  O    0.000468
 Electronic spatial extent (au):  <R**2>=          12194.3796
 Charge=              0.0000 electrons
 Dipole moment (field-independent basis, Debye):
    X=              5.9697    Y=             22.5433    Z=             -7.3230  Tot=             24.4431
 Quadrupole moment (field-independent basis, Debye-Ang):
   XX=            -58.7141   YY=           -120.6681   ZZ=           -169.8071
   XY=             48.7384   XZ=             10.9869   YZ=            -28.6864
 Traceless Quadrupole moment (field-independent basis, Debye-Ang):
   XX=             57.6824   YY=             -4.2717   ZZ=            -53.4107
   XY=             48.7384   XZ=             10.9869   YZ=            -28.6864
 Octapole moment (field-independent basis, Debye-Ang**2):
  XXX=            286.7797  YYY=            418.2504  ZZZ=           -180.2029  XYY=           -191.7187
  XXY=            213.2144  XXZ=             63.7198  XZZ=             34.8466  YZZ=            106.9602
  YYZ=             36.6140  XYZ=            -98.5000
 Hexadecapole moment (field-independent basis, Debye-Ang**3):
 XXXX=          -4297.6443 YYYY=          -4521.3148 ZZZZ=          -3031.4229 XXXY=           1486.7606
 XXXZ=           -105.5876 YYYX=            562.6284 YYYZ=           -817.9037 ZZZX=           -213.4231
 ZZZY=           -167.4946 XXYY=          -2177.7885 XXZZ=          -1809.2204 YYZZ=          -1111.7994
 XXYZ=           -199.4999 YYXZ=            671.8581 ZZXY=            220.5142
 N-N= 1.092170858685D+03 E-N=-6.150842901147D+03  KE= 1.249210914972D+03
 Leave Link  601 at Fri Sep 14 22:05:57 2018, MaxMem=    33554432 cpu:         6.7
 (Enter /usr/local/pacerepov1/gaussian/G09D01LINDA/g09/l9999.exe)

 Test job not archived.
 1\1\GINC-IW-H31-27\SP\RLC-wPBE TD-FC\6-31+G(d)\C3H32O15\ROOT\14-Sep-20
 18\0\\#p td=(nstates=15)/6-31+g(d) lc-wpbe charge\\Acroleina in Water\
 \0,1\C,0,0.485154,0.480443,-1.430142\H,0,1.461403,0.187773,-1.055732\H
 ,0,0.429244,0.878853,-2.437062\C,0,-0.605127,0.346563,-0.658432\H,0,-1
 .591686,0.632893,-1.012412\C,0,-0.508516,-0.199107,0.712798\H,0,-1.458
 487,-0.272107,1.272438\O,0,0.544883,-0.561317,1.236519\O,0,-0.704027,-
 0.944804,3.468601\H,0,-0.525817,-0.241204,2.780711\H,0,-0.177327,-0.74
 4234,4.294681\O,0,2.255983,1.562746,1.611701\H,0,2.173913,2.513846,1.3
 13781\H,0,1.343683,1.169826,1.727251\O,0,-0.205277,3.757466,-0.585139\
 H,0,0.087563,4.608106,-1.021819\H,0,-1.204207,3.710876,-0.582559\O,0,0
 .245553,-3.264594,2.841351\H,0,-0.211287,-2.416094,2.574151\H,0,-0.392
 757,-3.840014,3.352661\O,0,2.066703,-4.525354,1.786001\H,0,1.504973,-3
 .775594,2.135861\H,0,2.390743,-5.083514,2.549861\O,0,1.909403,3.783067
 ,0.441391\H,0,2.511153,4.102786,-0.290509\H,0,0.975033,3.703766,0.0939
 11\O,0,-2.748677,-1.715994,3.816501\H,0,-2.783457,-2.061424,4.754331\H
 ,0,-1.827197,-1.381864,3.618361\O,0,-2.990717,4.186016,-0.388229\H,0,-
 3.893517,3.818096,-0.611049\H,0,-2.943617,4.383236,0.591021\O,0,4.0080
 43,-3.450834,-3.969529\H,0,4.807054,-3.331794,-3.380039\H,0,3.592583,-
 2.559633,-4.15177\O,0,1.866923,-2.321604,4.276421\H,0,2.656353,-1.9964
 94,3.755691\H,0,1.202223,-2.732344,3.652331\O,0,3.360743,-1.400444,-4.
 612249\H,0,2.925783,-0.751874,-5.236949\H,0,4.066854,-0.930524,-4.0825
 2\O,0,4.460293,1.320696,1.005741\H,0,4.444833,1.294376,0.006181\H,0,3.
 525303,1.400046,1.351531\O,0,1.954093,-0.046054,-6.0851\H,0,2.226963,0
 .547306,-6.84241\H,0,1.251893,0.411456,-5.539589\O,0,4.800063,1.364976
 ,-1.508909\H,0,4.570563,2.261146,-1.888769\H,0,4.709033,0.668136,-2.22
 0409\\Version=EM64L-G09RevD.01\State=1-A\HF=-1759.1384708\RMSD=3.729e-
 09\PG=C01 [X(C3H32O15)]\\@


 THE FIRST AND LAST THING REQUIRED OF GENIUS IS THE LOVE OF TRUTH.

                          -- GOETHE
 Job cpu time:       0 days  4 hours 56 minutes 53.1 seconds.
 File lengths (MBytes):  RWF=    792 Int=      0 D2E=      0 Chk=     96 Scr=      2
 Normal termination of Gaussian 09 at Fri Sep 14 22:06:02 2018.
