 Entering Gaussian System, Link 0=g09
 Input=Acroleina_water_15_56c.gjf
 Output=Acroleina_water_15_56c.log
 Initial command:
 /usr/local/pacerepov1/gaussian/G09D01LINDA/g09/l1.exe /nv/hp18/holiveira7/scratch/22411948/Gau-45757.inp -scrdir=/nv/hp18/holiveira7/scratch/22411948/
 Entering Link 1 = /usr/local/pacerepov1/gaussian/G09D01LINDA/g09/l1.exe PID=     45758.
  
 Copyright (c) 1988,1990,1992,1993,1995,1998,2003,2009,2013,
            Gaussian, Inc.  All Rights Reserved.
  
 This is part of the Gaussian(R) 09 program.  It is based on
 the Gaussian(R) 03 system (copyright 2003, Gaussian, Inc.),
 the Gaussian(R) 98 system (copyright 1998, Gaussian, Inc.),
 the Gaussian(R) 94 system (copyright 1995, Gaussian, Inc.),
 the Gaussian 92(TM) system (copyright 1992, Gaussian, Inc.),
 the Gaussian 90(TM) system (copyright 1990, Gaussian, Inc.),
 the Gaussian 88(TM) system (copyright 1988, Gaussian, Inc.),
 the Gaussian 86(TM) system (copyright 1986, Carnegie Mellon
 University), and the Gaussian 82(TM) system (copyright 1983,
 Carnegie Mellon University). Gaussian is a federally registered
 trademark of Gaussian, Inc.
  
 This software contains proprietary and confidential information,
 including trade secrets, belonging to Gaussian, Inc.
  
 This software is provided under written license and may be
 used, copied, transmitted, or stored only in accord with that
 written license.
  
 The following legend is applicable only to US Government
 contracts under FAR:
  
                    RESTRICTED RIGHTS LEGEND
  
 Use, reproduction and disclosure by the US Government is
 subject to restrictions as set forth in subparagraphs (a)
 and (c) of the Commercial Computer Software - Restricted
 Rights clause in FAR 52.227-19.
  
 Gaussian, Inc.
 340 Quinnipiac St., Bldg. 40, Wallingford CT 06492
  
  
 ---------------------------------------------------------------
 Warning -- This program may not be used in any manner that
 competes with the business of Gaussian, Inc. or will provide
 assistance to any competitor of Gaussian, Inc.  The licensee
 of this program is prohibited from giving any competitor of
 Gaussian, Inc. access to this program.  By using this program,
 the user acknowledges that Gaussian, Inc. is engaged in the
 business of creating and licensing software in the field of
 computational chemistry and represents and warrants to the
 licensee that it is not a competitor of Gaussian, Inc. and that
 it will not use this program in any manner prohibited above.
 ---------------------------------------------------------------
  

 Cite this work as:
 Gaussian 09, Revision D.01,
 M. J. Frisch, G. W. Trucks, H. B. Schlegel, G. E. Scuseria, 
 M. A. Robb, J. R. Cheeseman, G. Scalmani, V. Barone, B. Mennucci, 
 G. A. Petersson, H. Nakatsuji, M. Caricato, X. Li, H. P. Hratchian, 
 A. F. Izmaylov, J. Bloino, G. Zheng, J. L. Sonnenberg, M. Hada, 
 M. Ehara, K. Toyota, R. Fukuda, J. Hasegawa, M. Ishida, T. Nakajima, 
 Y. Honda, O. Kitao, H. Nakai, T. Vreven, J. A. Montgomery, Jr., 
 J. E. Peralta, F. Ogliaro, M. Bearpark, J. J. Heyd, E. Brothers, 
 K. N. Kudin, V. N. Staroverov, T. Keith, R. Kobayashi, J. Normand, 
 K. Raghavachari, A. Rendell, J. C. Burant, S. S. Iyengar, J. Tomasi, 
 M. Cossi, N. Rega, J. M. Millam, M. Klene, J. E. Knox, J. B. Cross, 
 V. Bakken, C. Adamo, J. Jaramillo, R. Gomperts, R. E. Stratmann, 
 O. Yazyev, A. J. Austin, R. Cammi, C. Pomelli, J. W. Ochterski, 
 R. L. Martin, K. Morokuma, V. G. Zakrzewski, G. A. Voth, 
 P. Salvador, J. J. Dannenberg, S. Dapprich, A. D. Daniels, 
 O. Farkas, J. B. Foresman, J. V. Ortiz, J. Cioslowski, 
 and D. J. Fox, Gaussian, Inc., Wallingford CT, 2013.
 
 ******************************************
 Gaussian 09:  EM64L-G09RevD.01 24-Apr-2013
                14-Sep-2018 
 ******************************************
 %chk=Acrolina_Din_56.chk
 %nprocshared=10
 Will use up to   10 processors via shared memory.
 -------------------------------------------
 #p td=(nstates=15)/6-31+g(d) lc-wpbe charge
 -------------------------------------------
 1/18=10,28=-2,38=1,125=101/1;
 2/12=2,17=6,18=5,40=1/2;
 3/5=1,6=6,7=11,11=9,16=1,25=1,30=1,74=-41/1,2,8,3;
 4//1;
 5/5=2,38=5/2;
 8/6=1,10=2,108=15/1;
 9/41=15,42=1,70=2/14;
 6/7=2,8=2,9=2,10=2/1;
 99/5=1,9=1/99;
 Leave Link    1 at Fri Sep 14 17:21:17 2018, MaxMem=           0 cpu:        13.8
 (Enter /usr/local/pacerepov1/gaussian/G09D01LINDA/g09/l101.exe)
 ------------------
 Acroleina in Water
 ------------------
 Symbolic Z-matrix:
 Charge =  0 Multiplicity = 1
 C                     0.48515   0.48044  -1.43014 
 H                     1.4614    0.18777  -1.05573 
 H                     0.42924   0.87885  -2.43706 
 C                    -0.60513   0.34656  -0.65843 
 H                    -1.59169   0.63289  -1.01241 
 C                    -0.50852  -0.19911   0.7128 
 H                    -1.45849  -0.27211   1.27244 
 O                     0.54488  -0.56132   1.23652 
 O                    -1.08786  -0.97543   3.27256 
 H                    -0.94758  -0.41761   2.45452 
 H                    -0.51222  -0.63042   4.01394 
 O                     1.81456  -4.36288   1.77826 
 H                     1.00952  -3.7768    1.87051 
 H                     1.89347  -4.94995   2.58396 
 O                     1.44482   4.10943  -0.15869 
 H                     2.08851   4.68758  -0.66011 
 H                     0.56622   4.09704  -0.63617 
 O                     0.06839  -3.04343   3.00443 
 H                    -0.30006  -2.11376   3.00551 
 H                    -0.64929  -3.68665   3.27123 
 O                    -0.66845   4.45306  -1.06513 
 H                    -0.36788   5.36569  -1.34223 
 H                    -1.66776   4.41541  -1.07034 
 O                     2.046     2.29401   1.36171 
 H                     1.80193   3.05031   0.75465 
 H                     1.88645   2.56405   2.31126 
 O                    -3.25845  -1.46863   4.18549 
 H                    -3.26405  -2.27249   4.78031 
 H                    -2.34818  -1.35499   3.78731 
 O                     5.13709  -1.82715  -2.45504 
 H                     5.99575  -1.36737  -2.2284 
 H                     4.83639  -2.37523  -1.67451 
 O                     3.8732   -4.55225   0.67772 
 H                     2.99794  -4.32177   1.10299 
 H                     3.73175  -5.26196  -0.01246 
 O                     3.94207  -2.68233  -4.19574 
 H                     4.49732  -2.47874  -3.38932 
 H                     3.5671   -1.8322   -4.5655 
 O                     1.79336  -2.69776   4.29827 
 H                     2.51086  -2.26264   3.75428 
 H                     1.06728  -3.02352   3.6927 
 O                     4.25943   1.98043   0.54652 
 H                     4.25203   1.89018  -0.44939 
 H                     3.31907   2.00502   0.88591 
 O                    -3.31923   4.644    -0.99012 
 H                    -4.14343   4.49246  -1.53581 
 H                    -3.57771   4.95188  -0.07447 
 O                     3.14044  -0.57712  -5.04819 
 H                     2.86489  -0.1572   -5.91295 
 H                     3.68142   0.07587  -4.51811 
 
 NAtoms=     50 NQM=       50 NQMF=       0 NMMI=      0 NMMIF=      0
                NMic=       0 NMicF=      0.
                    Isotopes and Nuclear Properties:
 (Nuclear quadrupole moments (NQMom) in fm**2, nuclear magnetic moments (NMagM)
  in nuclear magnetons)

  Atom         1           2           3           4           5           6           7           8           9          10
 IAtWgt=          12           1           1          12           1          12           1          16          16           1
 AtmWgt=  12.0000000   1.0078250   1.0078250  12.0000000   1.0078250  12.0000000   1.0078250  15.9949146  15.9949146   1.0078250
 NucSpn=           0           1           1           0           1           0           1           0           0           1
 AtZEff=   0.0000000   0.0000000   0.0000000   0.0000000   0.0000000   0.0000000   0.0000000   0.0000000   0.0000000   0.0000000
 NQMom=    0.0000000   0.0000000   0.0000000   0.0000000   0.0000000   0.0000000   0.0000000   0.0000000   0.0000000   0.0000000
 NMagM=    0.0000000   2.7928460   2.7928460   0.0000000   2.7928460   0.0000000   2.7928460   0.0000000   0.0000000   2.7928460
 AtZNuc=   6.0000000   1.0000000   1.0000000   6.0000000   1.0000000   6.0000000   1.0000000   8.0000000   8.0000000   1.0000000

  Atom        11          12          13          14          15          16          17          18          19          20
 IAtWgt=           1          16           1           1          16           1           1          16           1           1
 AtmWgt=   1.0078250  15.9949146   1.0078250   1.0078250  15.9949146   1.0078250   1.0078250  15.9949146   1.0078250   1.0078250
 NucSpn=           1           0           1           1           0           1           1           0           1           1
 AtZEff=   0.0000000   0.0000000   0.0000000   0.0000000   0.0000000   0.0000000   0.0000000   0.0000000   0.0000000   0.0000000
 NQMom=    0.0000000   0.0000000   0.0000000   0.0000000   0.0000000   0.0000000   0.0000000   0.0000000   0.0000000   0.0000000
 NMagM=    2.7928460   0.0000000   2.7928460   2.7928460   0.0000000   2.7928460   2.7928460   0.0000000   2.7928460   2.7928460
 AtZNuc=   1.0000000   8.0000000   1.0000000   1.0000000   8.0000000   1.0000000   1.0000000   8.0000000   1.0000000   1.0000000

  Atom        21          22          23          24          25          26          27          28          29          30
 IAtWgt=          16           1           1          16           1           1          16           1           1          16
 AtmWgt=  15.9949146   1.0078250   1.0078250  15.9949146   1.0078250   1.0078250  15.9949146   1.0078250   1.0078250  15.9949146
 NucSpn=           0           1           1           0           1           1           0           1           1           0
 AtZEff=   0.0000000   0.0000000   0.0000000   0.0000000   0.0000000   0.0000000   0.0000000   0.0000000   0.0000000   0.0000000
 NQMom=    0.0000000   0.0000000   0.0000000   0.0000000   0.0000000   0.0000000   0.0000000   0.0000000   0.0000000   0.0000000
 NMagM=    0.0000000   2.7928460   2.7928460   0.0000000   2.7928460   2.7928460   0.0000000   2.7928460   2.7928460   0.0000000
 AtZNuc=   8.0000000   1.0000000   1.0000000   8.0000000   1.0000000   1.0000000   8.0000000   1.0000000   1.0000000   8.0000000

  Atom        31          32          33          34          35          36          37          38          39          40
 IAtWgt=           1           1          16           1           1          16           1           1          16           1
 AtmWgt=   1.0078250   1.0078250  15.9949146   1.0078250   1.0078250  15.9949146   1.0078250   1.0078250  15.9949146   1.0078250
 NucSpn=           1           1           0           1           1           0           1           1           0           1
 AtZEff=   0.0000000   0.0000000   0.0000000   0.0000000   0.0000000   0.0000000   0.0000000   0.0000000   0.0000000   0.0000000
 NQMom=    0.0000000   0.0000000   0.0000000   0.0000000   0.0000000   0.0000000   0.0000000   0.0000000   0.0000000   0.0000000
 NMagM=    2.7928460   2.7928460   0.0000000   2.7928460   2.7928460   0.0000000   2.7928460   2.7928460   0.0000000   2.7928460
 AtZNuc=   1.0000000   1.0000000   8.0000000   1.0000000   1.0000000   8.0000000   1.0000000   1.0000000   8.0000000   1.0000000

  Atom        41          42          43          44          45          46          47          48          49          50
 IAtWgt=           1          16           1           1          16           1           1          16           1           1
 AtmWgt=   1.0078250  15.9949146   1.0078250   1.0078250  15.9949146   1.0078250   1.0078250  15.9949146   1.0078250   1.0078250
 NucSpn=           1           0           1           1           0           1           1           0           1           1
 AtZEff=   0.0000000   0.0000000   0.0000000   0.0000000   0.0000000   0.0000000   0.0000000   0.0000000   0.0000000   0.0000000
 NQMom=    0.0000000   0.0000000   0.0000000   0.0000000   0.0000000   0.0000000   0.0000000   0.0000000   0.0000000   0.0000000
 NMagM=    2.7928460   0.0000000   2.7928460   2.7928460   0.0000000   2.7928460   2.7928460   0.0000000   2.7928460   2.7928460
 AtZNuc=   1.0000000   8.0000000   1.0000000   1.0000000   8.0000000   1.0000000   1.0000000   8.0000000   1.0000000   1.0000000
 Background charge distribution read from input stream:
 Point Charges:
 XYZ=    5.0215    0.3470   -3.5618 Q=   -0.8200 A=    0.0000 R=    0.0000 C=    0.0000
 XYZ=    5.5373    0.3428   -4.4186 Q=    0.4100 A=    0.0000 R=    0.0000 C=    0.0000
 XYZ=    4.9819   -0.5814   -3.1922 Q=    0.4100 A=    0.0000 R=    0.0000 C=    0.0000
 XYZ=    5.1432   -2.9993   -0.4616 Q=   -0.8200 A=    0.0000 R=    0.0000 C=    0.0000
 XYZ=    4.5009   -3.5736    0.0461 Q=    0.4100 A=    0.0000 R=    0.0000 C=    0.0000
 XYZ=    5.9554   -3.5338   -0.6952 Q=    0.4100 A=    0.0000 R=    0.0000 C=    0.0000
 XYZ=    4.3877    1.9415   -1.9494 Q=   -0.8200 A=    0.0000 R=    0.0000 C=    0.0000
 XYZ=    4.2246    2.8808   -2.2512 Q=    0.4100 A=    0.0000 R=    0.0000 C=    0.0000
 XYZ=    4.6617    1.3827   -2.7321 Q=    0.4100 A=    0.0000 R=    0.0000 C=    0.0000
 XYZ=   -3.8762    5.3277    1.1112 Q=   -0.8200 A=    0.0000 R=    0.0000 C=    0.0000
 XYZ=   -4.8225    5.0689    1.3051 Q=    0.4100 A=    0.0000 R=    0.0000 C=    0.0000
 XYZ=   -3.2570    4.7490    1.6420 Q=    0.4100 A=    0.0000 R=    0.0000 C=    0.0000
 XYZ=    3.9244   -5.0572   -3.4849 Q=   -0.8200 A=    0.0000 R=    0.0000 C=    0.0000
 XYZ=    3.8190   -4.1254   -3.8325 Q=    0.4100 A=    0.0000 R=    0.0000 C=    0.0000
 XYZ=    3.5761   -5.7065   -4.1611 Q=    0.4100 A=    0.0000 R=    0.0000 C=    0.0000
 XYZ=    1.5893   -6.4082    0.4808 Q=   -0.8200 A=    0.0000 R=    0.0000 C=    0.0000
 XYZ=    1.7919   -5.6561    1.1080 Q=    0.4100 A=    0.0000 R=    0.0000 C=    0.0000
 XYZ=    2.1926   -6.3505   -0.3147 Q=    0.4100 A=    0.0000 R=    0.0000 C=    0.0000
 XYZ=    0.0980   -0.9601    5.3374 Q=   -0.8200 A=    0.0000 R=    0.0000 C=    0.0000
 XYZ=    0.4622   -0.0907    5.6714 Q=    0.4100 A=    0.0000 R=    0.0000 C=    0.0000
 XYZ=    0.8545   -1.5766    5.1193 Q=    0.4100 A=    0.0000 R=    0.0000 C=    0.0000
 XYZ=    2.5389    5.7423    1.4976 Q=   -0.8200 A=    0.0000 R=    0.0000 C=    0.0000
 XYZ=    2.1550    4.9965    0.9531 Q=    0.4100 A=    0.0000 R=    0.0000 C=    0.0000
 XYZ=    2.2123    6.6176    1.1410 Q=    0.4100 A=    0.0000 R=    0.0000 C=    0.0000
 XYZ=    3.4212   -6.0253   -1.1796 Q=   -0.8200 A=    0.0000 R=    0.0000 C=    0.0000
 XYZ=    4.3025   -6.4615   -0.9973 Q=    0.4100 A=    0.0000 R=    0.0000 C=    0.0000
 XYZ=    3.4832   -5.4874   -2.0203 Q=    0.4100 A=    0.0000 R=    0.0000 C=    0.0000
 XYZ=    5.3606   -1.7757    1.7558 Q=   -0.8200 A=    0.0000 R=    0.0000 C=    0.0000
 XYZ=    5.1272   -2.0380    0.8195 Q=    0.4100 A=    0.0000 R=    0.0000 C=    0.0000
 XYZ=    5.6603   -2.5836    2.2633 Q=    0.4100 A=    0.0000 R=    0.0000 C=    0.0000
 XYZ=    3.8103   -1.4512    3.5144 Q=   -0.8200 A=    0.0000 R=    0.0000 C=    0.0000
 XYZ=    3.9263   -0.5199    3.8595 Q=    0.4100 A=    0.0000 R=    0.0000 C=    0.0000
 XYZ=    4.4439   -1.6071    2.7565 Q=    0.4100 A=    0.0000 R=    0.0000 C=    0.0000
 XYZ=   -2.3966    6.4745   -2.3235 Q=   -0.8200 A=    0.0000 R=    0.0000 C=    0.0000
 XYZ=   -2.7083    5.6763   -1.8080 Q=    0.4100 A=    0.0000 R=    0.0000 C=    0.0000
 XYZ=   -2.5883    7.3048   -1.8003 Q=    0.4100 A=    0.0000 R=    0.0000 C=    0.0000
 XYZ=   -5.2081   -0.3646    4.3718 Q=   -0.8200 A=    0.0000 R=    0.0000 C=    0.0000
 XYZ=   -5.0967    0.6270    4.4387 Q=    0.4100 A=    0.0000 R=    0.0000 C=    0.0000
 XYZ=   -4.3134   -0.7926    4.2440 Q=    0.4100 A=    0.0000 R=    0.0000 C=    0.0000
 XYZ=    3.6962   -3.5023   -6.5460 Q=   -0.8200 A=    0.0000 R=    0.0000 C=    0.0000
 XYZ=    3.8026   -3.1199   -5.6281 Q=    0.4100 A=    0.0000 R=    0.0000 C=    0.0000
 XYZ=    4.5893   -3.7880   -6.8935 Q=    0.4100 A=    0.0000 R=    0.0000 C=    0.0000
 XYZ=   -0.8183   -2.8927    6.2257 Q=   -0.8200 A=    0.0000 R=    0.0000 C=    0.0000
 XYZ=   -0.5388   -2.0419    5.7804 Q=    0.4100 A=    0.0000 R=    0.0000 C=    0.0000
 XYZ=   -1.7058   -3.1810    5.8662 Q=    0.4100 A=    0.0000 R=    0.0000 C=    0.0000
 XYZ=    2.9337    5.3547   -1.5186 Q=   -0.8200 A=    0.0000 R=    0.0000 C=    0.0000
 XYZ=    3.5365    6.0392   -1.1087 Q=    0.4100 A=    0.0000 R=    0.0000 C=    0.0000
 XYZ=    3.4669    4.7563   -2.1166 Q=    0.4100 A=    0.0000 R=    0.0000 C=    0.0000
 XYZ=   -1.3595   -4.7708    3.5403 Q=   -0.8200 A=    0.0000 R=    0.0000 C=    0.0000
 XYZ=   -1.6737   -5.3382    2.7792 Q=    0.4100 A=    0.0000 R=    0.0000 C=    0.0000
 XYZ=   -0.5451   -5.1828    3.9491 Q=    0.4100 A=    0.0000 R=    0.0000 C=    0.0000
 XYZ=    1.9747    0.2324   -6.9981 Q=   -0.8200 A=    0.0000 R=    0.0000 C=    0.0000
 XYZ=    2.2924    1.0417   -7.4922 Q=    0.4100 A=    0.0000 R=    0.0000 C=    0.0000
 XYZ=    0.9983    0.3236   -6.8020 Q=    0.4100 A=    0.0000 R=    0.0000 C=    0.0000
 XYZ=    0.8801    6.6477   -1.6610 Q=   -0.8200 A=    0.0000 R=    0.0000 C=    0.0000
 XYZ=    1.6068    5.9610   -1.6750 Q=    0.4100 A=    0.0000 R=    0.0000 C=    0.0000
 XYZ=    0.4996    6.7492   -2.5802 Q=    0.4100 A=    0.0000 R=    0.0000 C=    0.0000
 XYZ=    6.1000    0.4901    1.2478 Q=   -0.8200 A=    0.0000 R=    0.0000 C=    0.0000
 XYZ=    5.2499    0.9340    0.9644 Q=    0.4100 A=    0.0000 R=    0.0000 C=    0.0000
 XYZ=    5.8957   -0.4168    1.6164 Q=    0.4100 A=    0.0000 R=    0.0000 C=    0.0000
 XYZ=   -0.6509   -7.1452    0.2139 Q=   -0.8200 A=    0.0000 R=    0.0000 C=    0.0000
 XYZ=    0.3089   -6.9048    0.3588 Q=    0.4100 A=    0.0000 R=    0.0000 C=    0.0000
 XYZ=   -0.7986   -7.3597   -0.7516 Q=    0.4100 A=    0.0000 R=    0.0000 C=    0.0000
 XYZ=    0.9033    5.7453    3.2802 Q=   -0.8200 A=    0.0000 R=    0.0000 C=    0.0000
 XYZ=    0.2202    6.3987    2.9541 Q=    0.4100 A=    0.0000 R=    0.0000 C=    0.0000
 XYZ=    1.6645    5.7080    2.6327 Q=    0.4100 A=    0.0000 R=    0.0000 C=    0.0000
 XYZ=    4.4582    4.1817   -2.8669 Q=   -0.8200 A=    0.0000 R=    0.0000 C=    0.0000
 XYZ=    5.3629    4.2583   -2.4477 Q=    0.4100 A=    0.0000 R=    0.0000 C=    0.0000
 XYZ=    4.5363    4.3152   -3.8549 Q=    0.4100 A=    0.0000 R=    0.0000 C=    0.0000
 XYZ=    4.6104   -5.7128    2.6262 Q=   -0.8200 A=    0.0000 R=    0.0000 C=    0.0000
 XYZ=    4.3221   -5.2558    1.7846 Q=    0.4100 A=    0.0000 R=    0.0000 C=    0.0000
 XYZ=    3.8035   -5.9951    3.1453 Q=    0.4100 A=    0.0000 R=    0.0000 C=    0.0000
 XYZ=   -2.5153    7.4238    1.1492 Q=   -0.8200 A=    0.0000 R=    0.0000 C=    0.0000
 XYZ=   -2.8073    8.1992    1.7091 Q=    0.4100 A=    0.0000 R=    0.0000 C=    0.0000
 XYZ=   -2.9770    6.5939    1.4624 Q=    0.4100 A=    0.0000 R=    0.0000 C=    0.0000
 XYZ=   -2.0662   -6.4139    1.8353 Q=   -0.8200 A=    0.0000 R=    0.0000 C=    0.0000
 XYZ=   -1.4670   -6.6754    1.0785 Q=    0.4100 A=    0.0000 R=    0.0000 C=    0.0000
 XYZ=   -3.0206   -6.5269    1.5590 Q=    0.4100 A=    0.0000 R=    0.0000 C=    0.0000
 XYZ=   -6.0831   -1.5572    2.4206 Q=   -0.8200 A=    0.0000 R=    0.0000 C=    0.0000
 XYZ=   -5.6559   -1.1594    3.2325 Q=    0.4100 A=    0.0000 R=    0.0000 C=    0.0000
 XYZ=   -6.3095   -2.5149    2.5984 Q=    0.4100 A=    0.0000 R=    0.0000 C=    0.0000
 XYZ=    1.3504    0.7972    6.4835 Q=   -0.8200 A=    0.0000 R=    0.0000 C=    0.0000
 XYZ=    1.6738    0.0223    7.0267 Q=    0.4100 A=    0.0000 R=    0.0000 C=    0.0000
 XYZ=    2.1339    1.2793    6.0913 Q=    0.4100 A=    0.0000 R=    0.0000 C=    0.0000
 XYZ=   -5.6497    4.2793   -1.6685 Q=   -0.8200 A=    0.0000 R=    0.0000 C=    0.0000
 XYZ=   -6.2170    5.0413   -1.3561 Q=    0.4100 A=    0.0000 R=    0.0000 C=    0.0000
 XYZ=   -5.9815    3.4282   -1.2617 Q=    0.4100 A=    0.0000 R=    0.0000 C=    0.0000
 XYZ=    4.4588    0.7000    4.3940 Q=   -0.8200 A=    0.0000 R=    0.0000 C=    0.0000
 XYZ=    4.8449    0.2586    5.2040 Q=    0.4100 A=    0.0000 R=    0.0000 C=    0.0000
 XYZ=    3.7288    1.3249    4.6710 Q=    0.4100 A=    0.0000 R=    0.0000 C=    0.0000
 XYZ=    6.8517    1.3854   -0.8919 Q=   -0.8200 A=    0.0000 R=    0.0000 C=    0.0000
 XYZ=    6.0098    1.7232   -1.3128 Q=    0.4100 A=    0.0000 R=    0.0000 C=    0.0000
 XYZ=    6.6953    1.2231    0.0824 Q=    0.4100 A=    0.0000 R=    0.0000 C=    0.0000
 XYZ=    2.1706   -6.1934    3.2537 Q=   -0.8200 A=    0.0000 R=    0.0000 C=    0.0000
 XYZ=    1.7035   -6.0668    4.1288 Q=    0.4100 A=    0.0000 R=    0.0000 C=    0.0000
 XYZ=    1.9055   -7.0731    2.8587 Q=    0.4100 A=    0.0000 R=    0.0000 C=    0.0000
 XYZ=   -0.4446    6.7565   -3.7055 Q=   -0.8200 A=    0.0000 R=    0.0000 C=    0.0000
 XYZ=   -1.1996    6.5876   -3.0720 Q=    0.4100 A=    0.0000 R=    0.0000 C=    0.0000
 XYZ=   -0.5702    6.2030   -4.5289 Q=    0.4100 A=    0.0000 R=    0.0000 C=    0.0000
 XYZ=   -2.7213    4.6892   -5.4592 Q=   -0.8200 A=    0.0000 R=    0.0000 C=    0.0000
 XYZ=   -1.7839    4.8479   -5.1494 Q=    0.4100 A=    0.0000 R=    0.0000 C=    0.0000
 XYZ=   -3.3316    5.3547   -5.0292 Q=    0.4100 A=    0.0000 R=    0.0000 C=    0.0000
 XYZ=    6.1712   -5.8282   -2.9383 Q=   -0.8200 A=    0.0000 R=    0.0000 C=    0.0000
 XYZ=    5.3499   -5.4129   -3.3293 Q=    0.4100 A=    0.0000 R=    0.0000 C=    0.0000
 XYZ=    6.8828   -5.8829   -3.6388 Q=    0.4100 A=    0.0000 R=    0.0000 C=    0.0000
 XYZ=    5.0434   -2.6591    5.1496 Q=   -0.8200 A=    0.0000 R=    0.0000 C=    0.0000
 XYZ=    4.5827   -2.1675    4.4105 Q=    0.4100 A=    0.0000 R=    0.0000 C=    0.0000
 XYZ=    4.3624   -3.1224    5.7168 Q=    0.4100 A=    0.0000 R=    0.0000 C=    0.0000
 XYZ=    7.2569   -0.9595   -1.5525 Q=   -0.8200 A=    0.0000 R=    0.0000 C=    0.0000
 XYZ=    7.0141   -0.0061   -1.3736 Q=    0.4100 A=    0.0000 R=    0.0000 C=    0.0000
 XYZ=    7.8315   -1.3022   -0.8093 Q=    0.4100 A=    0.0000 R=    0.0000 C=    0.0000
 XYZ=    2.8093   -3.2630    6.4423 Q=   -0.8200 A=    0.0000 R=    0.0000 C=    0.0000
 XYZ=    2.2238   -3.1148    5.6453 Q=    0.4100 A=    0.0000 R=    0.0000 C=    0.0000
 XYZ=    2.9564   -2.3936    6.9141 Q=    0.4100 A=    0.0000 R=    0.0000 C=    0.0000
 XYZ=    1.5213    7.7251    0.3534 Q=   -0.8200 A=    0.0000 R=    0.0000 C=    0.0000
 XYZ=    0.7750    7.7483    1.0187 Q=    0.4100 A=    0.0000 R=    0.0000 C=    0.0000
 XYZ=    1.1763    7.3890   -0.5230 Q=    0.4100 A=    0.0000 R=    0.0000 C=    0.0000
 XYZ=   -2.8417    0.1547    7.8643 Q=   -0.8200 A=    0.0000 R=    0.0000 C=    0.0000
 XYZ=   -2.6739   -0.7892    8.1489 Q=    0.4100 A=    0.0000 R=    0.0000 C=    0.0000
 XYZ=   -2.8256    0.2097    6.8659 Q=    0.4100 A=    0.0000 R=    0.0000 C=    0.0000
 XYZ=    5.3979    3.5243    2.1179 Q=   -0.8200 A=    0.0000 R=    0.0000 C=    0.0000
 XYZ=    4.7408    4.2605    2.2794 Q=    0.4100 A=    0.0000 R=    0.0000 C=    0.0000
 XYZ=    5.1035    2.9814    1.3314 Q=    0.4100 A=    0.0000 R=    0.0000 C=    0.0000
 XYZ=   -0.2626    7.6131    2.1366 Q=   -0.8200 A=    0.0000 R=    0.0000 C=    0.0000
 XYZ=   -0.2940    8.3963    2.7576 Q=    0.4100 A=    0.0000 R=    0.0000 C=    0.0000
 XYZ=   -1.0540    7.6402    1.5259 Q=    0.4100 A=    0.0000 R=    0.0000 C=    0.0000
 XYZ=   -3.1436   -3.3380    5.5655 Q=   -0.8200 A=    0.0000 R=    0.0000 C=    0.0000
 XYZ=   -3.6026   -3.2531    6.4499 Q=    0.4100 A=    0.0000 R=    0.0000 C=    0.0000
 XYZ=   -3.3683   -4.2226    5.1569 Q=    0.4100 A=    0.0000 R=    0.0000 C=    0.0000
 XYZ=    0.1583    2.8336    7.5320 Q=   -0.8200 A=    0.0000 R=    0.0000 C=    0.0000
 XYZ=    0.5607    2.1398    6.9346 Q=    0.4100 A=    0.0000 R=    0.0000 C=    0.0000
 XYZ=   -0.5548    2.4157    8.0950 Q=    0.4100 A=    0.0000 R=    0.0000 C=    0.0000
 XYZ=    3.0456    2.2448    5.7201 Q=   -0.8200 A=    0.0000 R=    0.0000 C=    0.0000
 XYZ=    3.6322    2.0648    6.5097 Q=    0.4100 A=    0.0000 R=    0.0000 C=    0.0000
 XYZ=    3.0567    3.2230    5.5128 Q=    0.4100 A=    0.0000 R=    0.0000 C=    0.0000
 XYZ=    3.4261   -1.6065   -8.0126 Q=   -0.8200 A=    0.0000 R=    0.0000 C=    0.0000
 XYZ=    3.5655   -2.4494   -7.4929 Q=    0.4100 A=    0.0000 R=    0.0000 C=    0.0000
 XYZ=    2.7135   -1.0586   -7.5743 Q=    0.4100 A=    0.0000 R=    0.0000 C=    0.0000
 XYZ=   -0.3046    5.4240   -5.7046 Q=   -0.8200 A=    0.0000 R=    0.0000 C=    0.0000
 XYZ=   -0.8943    5.7890   -6.4251 Q=    0.4100 A=    0.0000 R=    0.0000 C=    0.0000
 XYZ=    0.6275    5.3279   -6.0537 Q=    0.4100 A=    0.0000 R=    0.0000 C=    0.0000
 XYZ=   -3.9767    2.7310   -6.0227 Q=   -0.8200 A=    0.0000 R=    0.0000 C=    0.0000
 XYZ=   -3.4873    3.5095   -5.6296 Q=    0.4100 A=    0.0000 R=    0.0000 C=    0.0000
 XYZ=   -3.8891    2.7507   -7.0187 Q=    0.4100 A=    0.0000 R=    0.0000 C=    0.0000
 XYZ=   -3.2945   -5.5106    4.5372 Q=   -0.8200 A=    0.0000 R=    0.0000 C=    0.0000
 XYZ=   -2.4409   -5.2869    4.0667 Q=    0.4100 A=    0.0000 R=    0.0000 C=    0.0000
 XYZ=   -3.1356   -6.2638    5.1756 Q=    0.4100 A=    0.0000 R=    0.0000 C=    0.0000
 XYZ=   -7.3912   -1.7574    0.4163 Q=   -0.8200 A=    0.0000 R=    0.0000 C=    0.0000
 XYZ=   -6.5879   -1.6442    1.0010 Q=    0.4100 A=    0.0000 R=    0.0000 C=    0.0000
 XYZ=   -7.5596   -2.7317    0.2662 Q=    0.4100 A=    0.0000 R=    0.0000 C=    0.0000
 XYZ=    6.6933   -4.6613   -0.4713 Q=   -0.8200 A=    0.0000 R=    0.0000 C=    0.0000
 XYZ=    7.6479   -4.7688   -0.7491 Q=    0.4100 A=    0.0000 R=    0.0000 C=    0.0000
 XYZ=    6.1712   -5.4660   -0.7539 Q=    0.4100 A=    0.0000 R=    0.0000 C=    0.0000
 XYZ=    5.7900   -3.6813    3.2110 Q=   -0.8200 A=    0.0000 R=    0.0000 C=    0.0000
 XYZ=    5.6144   -3.3416    4.1350 Q=    0.4100 A=    0.0000 R=    0.0000 C=    0.0000
 XYZ=    5.3821   -4.5883    3.1064 Q=    0.4100 A=    0.0000 R=    0.0000 C=    0.0000
 XYZ=   -6.3489    4.5295    1.4082 Q=   -0.8200 A=    0.0000 R=    0.0000 C=    0.0000
 XYZ=   -6.9343    4.9299    0.7031 Q=    0.4100 A=    0.0000 R=    0.0000 C=    0.0000
 XYZ=   -6.5906    4.9134    2.2994 Q=    0.4100 A=    0.0000 R=    0.0000 C=    0.0000
 XYZ=    0.9271    5.8009    5.6613 Q=   -0.8200 A=    0.0000 R=    0.0000 C=    0.0000
 XYZ=    0.6975    5.8732    4.6907 Q=    0.4100 A=    0.0000 R=    0.0000 C=    0.0000
 XYZ=    0.1676    5.3745    6.1527 Q=    0.4100 A=    0.0000 R=    0.0000 C=    0.0000
 XYZ=   -5.7182    1.3663   -5.1476 Q=   -0.8200 A=    0.0000 R=    0.0000 C=    0.0000
 XYZ=   -5.3586    0.6911   -4.5035 Q=    0.4100 A=    0.0000 R=    0.0000 C=    0.0000
 XYZ=   -4.9949    2.0123   -5.3916 Q=    0.4100 A=    0.0000 R=    0.0000 C=    0.0000
 XYZ=    2.0132    5.4796   -6.4422 Q=   -0.8200 A=    0.0000 R=    0.0000 C=    0.0000
 XYZ=    2.7801    4.9733   -6.0479 Q=    0.4100 A=    0.0000 R=    0.0000 C=    0.0000
 XYZ=    2.1600    6.4604   -6.3136 Q=    0.4100 A=    0.0000 R=    0.0000 C=    0.0000
 XYZ=   -3.9554    6.4532   -4.2613 Q=   -0.8200 A=    0.0000 R=    0.0000 C=    0.0000
 XYZ=   -3.4201    6.5119   -3.4186 Q=    0.4100 A=    0.0000 R=    0.0000 C=    0.0000
 XYZ=   -4.6860    5.7802   -4.1457 Q=    0.4100 A=    0.0000 R=    0.0000 C=    0.0000
 XYZ=   -5.7082    4.9078   -3.9559 Q=   -0.8200 A=    0.0000 R=    0.0000 C=    0.0000
 XYZ=   -5.7368    4.6665   -2.9859 Q=    0.4100 A=    0.0000 R=    0.0000 C=    0.0000
 XYZ=   -6.3246    4.3086   -4.4668 Q=    0.4100 A=    0.0000 R=    0.0000 C=    0.0000
 XYZ=    0.7201   -4.4643    6.7456 Q=   -0.8200 A=    0.0000 R=    0.0000 C=    0.0000
 XYZ=    1.6336   -4.0597    6.7041 Q=    0.4100 A=    0.0000 R=    0.0000 C=    0.0000
 XYZ=    0.0470   -3.8019    6.4164 Q=    0.4100 A=    0.0000 R=    0.0000 C=    0.0000
 XYZ=   -2.6585    8.5954   -1.0131 Q=   -0.8200 A=    0.0000 R=    0.0000 C=    0.0000
 XYZ=   -1.7517    8.9875   -1.1680 Q=    0.4100 A=    0.0000 R=    0.0000 C=    0.0000
 XYZ=   -2.6446    8.0421   -0.1802 Q=    0.4100 A=    0.0000 R=    0.0000 C=    0.0000
 XYZ=    0.8152   -6.0363    4.9808 Q=   -0.8200 A=    0.0000 R=    0.0000 C=    0.0000
 XYZ=    0.1668   -6.7963    5.0248 Q=    0.4100 A=    0.0000 R=    0.0000 C=    0.0000
 XYZ=    0.7280   -5.4757    5.8044 Q=    0.4100 A=    0.0000 R=    0.0000 C=    0.0000
 XYZ=   -2.3896   -2.0973    8.0423 Q=   -0.8200 A=    0.0000 R=    0.0000 C=    0.0000
 XYZ=   -1.7304   -2.2379    7.3036 Q=    0.4100 A=    0.0000 R=    0.0000 C=    0.0000
 XYZ=   -2.1282   -2.6519    8.8323 Q=    0.4100 A=    0.0000 R=    0.0000 C=    0.0000
 XYZ=    4.3809    5.3811    3.1244 Q=   -0.8200 A=    0.0000 R=    0.0000 C=    0.0000
 XYZ=    3.9640    4.9213    3.9085 Q=    0.4100 A=    0.0000 R=    0.0000 C=    0.0000
 XYZ=    3.6806    5.8940    2.6278 Q=    0.4100 A=    0.0000 R=    0.0000 C=    0.0000
 XYZ=   -6.1062   -2.0208    6.0965 Q=   -0.8200 A=    0.0000 R=    0.0000 C=    0.0000
 XYZ=   -5.6259   -1.5045    5.3873 Q=    0.4100 A=    0.0000 R=    0.0000 C=    0.0000
 XYZ=   -5.4624   -2.2726    6.8191 Q=    0.4100 A=    0.0000 R=    0.0000 C=    0.0000
 XYZ=    5.6770   -6.6523   -0.9209 Q=   -0.8200 A=    0.0000 R=    0.0000 C=    0.0000
 XYZ=    6.3343   -7.3093   -0.5518 Q=    0.4100 A=    0.0000 R=    0.0000 C=    0.0000
 XYZ=    5.9754   -6.3563   -1.8283 Q=    0.4100 A=    0.0000 R=    0.0000 C=    0.0000
 XYZ=   -7.5996    0.9210    4.3492 Q=   -0.8200 A=    0.0000 R=    0.0000 C=    0.0000
 XYZ=   -6.8754    0.5224    3.7864 Q=    0.4100 A=    0.0000 R=    0.0000 C=    0.0000
 XYZ=   -7.9005    0.2515    5.0283 Q=    0.4100 A=    0.0000 R=    0.0000 C=    0.0000
 XYZ=    2.7608   -5.0500   -8.1455 Q=   -0.8200 A=    0.0000 R=    0.0000 C=    0.0000
 XYZ=    3.4352   -5.1187   -8.8807 Q=    0.4100 A=    0.0000 R=    0.0000 C=    0.0000
 XYZ=    3.0016   -4.2896   -7.5423 Q=    0.4100 A=    0.0000 R=    0.0000 C=    0.0000
 XYZ=    4.7617    4.6155   -5.2608 Q=   -0.8200 A=    0.0000 R=    0.0000 C=    0.0000
 XYZ=    5.4079    5.3672   -5.1293 Q=    0.4100 A=    0.0000 R=    0.0000 C=    0.0000
 XYZ=    5.1010    4.0057   -5.9771 Q=    0.4100 A=    0.0000 R=    0.0000 C=    0.0000
 XYZ=   -1.4924   -8.4337    3.0358 Q=   -0.8200 A=    0.0000 R=    0.0000 C=    0.0000
 XYZ=   -1.0923   -9.1683    2.4878 Q=    0.4100 A=    0.0000 R=    0.0000 C=    0.0000
 XYZ=   -1.5431   -7.5988    2.4877 Q=    0.4100 A=    0.0000 R=    0.0000 C=    0.0000
 XYZ=   -0.2461    9.1763   -1.4402 Q=   -0.8200 A=    0.0000 R=    0.0000 C=    0.0000
 XYZ=   -0.5909    9.2110   -2.3783 Q=    0.4100 A=    0.0000 R=    0.0000 C=    0.0000
 XYZ=    0.2690    8.3299   -1.3055 Q=    0.4100 A=    0.0000 R=    0.0000 C=    0.0000
 XYZ=    6.4487    0.2055   -5.7393 Q=   -0.8200 A=    0.0000 R=    0.0000 C=    0.0000
 XYZ=    7.0474    1.0037   -5.6716 Q=    0.4100 A=    0.0000 R=    0.0000 C=    0.0000
 XYZ=    6.9558   -0.6148   -5.4746 Q=    0.4100 A=    0.0000 R=    0.0000 C=    0.0000
 XYZ=   -7.9416    2.9744    0.9778 Q=   -0.8200 A=    0.0000 R=    0.0000 C=    0.0000
 XYZ=   -7.2113    3.6089    1.2313 Q=    0.4100 A=    0.0000 R=    0.0000 C=    0.0000
 XYZ=   -7.8943    2.7867   -0.0033 Q=    0.4100 A=    0.0000 R=    0.0000 C=    0.0000
 XYZ=    7.3625   -4.4489    1.7351 Q=   -0.8200 A=    0.0000 R=    0.0000 C=    0.0000
 XYZ=    6.6987   -4.0253    2.3515 Q=    0.4100 A=    0.0000 R=    0.0000 C=    0.0000
 XYZ=    6.9907   -4.4675    0.8069 Q=    0.4100 A=    0.0000 R=    0.0000 C=    0.0000
 XYZ=   -7.4262    2.4252   -1.3524 Q=   -0.8200 A=    0.0000 R=    0.0000 C=    0.0000
 XYZ=   -7.5769    1.4505   -1.1872 Q=    0.4100 A=    0.0000 R=    0.0000 C=    0.0000
 XYZ=   -7.9416    2.7098   -2.1607 Q=    0.4100 A=    0.0000 R=    0.0000 C=    0.0000
 XYZ=    9.0426   -0.9697   -3.0180 Q=   -0.8200 A=    0.0000 R=    0.0000 C=    0.0000
 XYZ=    8.1813   -0.9070   -2.5137 Q=    0.4100 A=    0.0000 R=    0.0000 C=    0.0000
 XYZ=    9.8018   -1.0516   -2.3722 Q=    0.4100 A=    0.0000 R=    0.0000 C=    0.0000
 XYZ=   -0.7683    4.9293    7.2046 Q=   -0.8200 A=    0.0000 R=    0.0000 C=    0.0000
 XYZ=   -0.3347    5.3692    7.9911 Q=    0.4100 A=    0.0000 R=    0.0000 C=    0.0000
 XYZ=   -0.4362    3.9895    7.1235 Q=    0.4100 A=    0.0000 R=    0.0000 C=    0.0000
 XYZ=    6.1539    2.3897    4.1844 Q=   -0.8200 A=    0.0000 R=    0.0000 C=    0.0000
 XYZ=    5.9941    2.9421    3.3663 Q=    0.4100 A=    0.0000 R=    0.0000 C=    0.0000
 XYZ=    5.5660    1.5812    4.1607 Q=    0.4100 A=    0.0000 R=    0.0000 C=    0.0000
 XYZ=    5.5325   -0.2608   -7.7762 Q=   -0.8200 A=    0.0000 R=    0.0000 C=    0.0000
 XYZ=    5.8526   -0.1316   -6.8377 Q=    0.4100 A=    0.0000 R=    0.0000 C=    0.0000
 XYZ=    4.5809   -0.5680   -7.7644 Q=    0.4100 A=    0.0000 R=    0.0000 C=    0.0000
 XYZ=    2.7885   -1.1309    7.4509 Q=   -0.8200 A=    0.0000 R=    0.0000 C=    0.0000
 XYZ=    3.0728   -1.0345    8.4048 Q=    0.4100 A=    0.0000 R=    0.0000 C=    0.0000
 XYZ=    3.5406   -0.8603    6.8500 Q=    0.4100 A=    0.0000 R=    0.0000 C=    0.0000
 XYZ=   -4.3231   -6.6094    1.1865 Q=   -0.8200 A=    0.0000 R=    0.0000 C=    0.0000
 XYZ=   -4.2706   -7.5918    1.0069 Q=    0.4100 A=    0.0000 R=    0.0000 C=    0.0000
 XYZ=   -4.8284   -6.1622    0.4485 Q=    0.4100 A=    0.0000 R=    0.0000 C=    0.0000
 XYZ=    3.1121    4.7427    5.2418 Q=   -0.8200 A=    0.0000 R=    0.0000 C=    0.0000
 XYZ=    3.8805    5.0666    5.7939 Q=    0.4100 A=    0.0000 R=    0.0000 C=    0.0000
 XYZ=    2.2722    5.1951    5.5417 Q=    0.4100 A=    0.0000 R=    0.0000 C=    0.0000
 XYZ=   -2.1219    5.3297   -7.6851 Q=   -0.8200 A=    0.0000 R=    0.0000 C=    0.0000
 XYZ=   -2.4079    4.9217   -6.8181 Q=    0.4100 A=    0.0000 R=    0.0000 C=    0.0000
 XYZ=   -2.8112    5.1424   -8.3850 Q=    0.4100 A=    0.0000 R=    0.0000 C=    0.0000
 XYZ=    1.3426    4.1495   -8.3805 Q=   -0.8200 A=    0.0000 R=    0.0000 C=    0.0000
 XYZ=    1.6711    4.7156   -7.6244 Q=    0.4100 A=    0.0000 R=    0.0000 C=    0.0000
 XYZ=    1.7967    3.2590   -8.3519 Q=    0.4100 A=    0.0000 R=    0.0000 C=    0.0000
 XYZ=    8.3943    0.4749    1.8965 Q=   -0.8200 A=    0.0000 R=    0.0000 C=    0.0000
 XYZ=    8.5975    0.3545    2.8682 Q=    0.4100 A=    0.0000 R=    0.0000 C=    0.0000
 XYZ=    7.4051    0.4355    1.7555 Q=    0.4100 A=    0.0000 R=    0.0000 C=    0.0000
 XYZ=    2.5181    2.0608   -8.6248 Q=   -0.8200 A=    0.0000 R=    0.0000 C=    0.0000
 XYZ=    3.5077    2.0161   -8.7613 Q=    0.4100 A=    0.0000 R=    0.0000 C=    0.0000
 XYZ=    2.0533    1.7158   -9.4403 Q=    0.4100 A=    0.0000 R=    0.0000 C=    0.0000
 XYZ=   -5.2546   -5.6218    3.1048 Q=   -0.8200 A=    0.0000 R=    0.0000 C=    0.0000
 XYZ=   -4.5384   -5.4875    3.7898 Q=    0.4100 A=    0.0000 R=    0.0000 C=    0.0000
 XYZ=   -4.8637   -6.0603    2.2956 Q=    0.4100 A=    0.0000 R=    0.0000 C=    0.0000
 XYZ=   -6.6478   -3.8653    2.7076 Q=   -0.8200 A=    0.0000 R=    0.0000 C=    0.0000
 XYZ=   -7.0261   -3.5874    3.5906 Q=    0.4100 A=    0.0000 R=    0.0000 C=    0.0000
 XYZ=   -5.9761   -4.5929    2.8468 Q=    0.4100 A=    0.0000 R=    0.0000 C=    0.0000
 XYZ=   -0.8687    8.9822   -3.6684 Q=   -0.8200 A=    0.0000 R=    0.0000 C=    0.0000
 XYZ=   -1.5583    9.2335   -4.3477 Q=    0.4100 A=    0.0000 R=    0.0000 C=    0.0000
 XYZ=   -0.6256    8.0187   -3.7810 Q=    0.4100 A=    0.0000 R=    0.0000 C=    0.0000
 XYZ=    4.1007    7.2604   -0.6484 Q=   -0.8200 A=    0.0000 R=    0.0000 C=    0.0000
 XYZ=    3.3508    7.9219   -0.6526 Q=    0.4100 A=    0.0000 R=    0.0000 C=    0.0000
 XYZ=    4.7752    7.5256    0.0405 Q=    0.4100 A=    0.0000 R=    0.0000 C=    0.0000
 XYZ=    6.7537   -6.6758    2.0311 Q=   -0.8200 A=    0.0000 R=    0.0000 C=    0.0000
 XYZ=    7.1932   -5.8085    1.7973 Q=    0.4100 A=    0.0000 R=    0.0000 C=    0.0000
 XYZ=    5.8012   -6.5086    2.2860 Q=    0.4100 A=    0.0000 R=    0.0000 C=    0.0000
 XYZ=   -4.5057   -2.7079    7.5015 Q=   -0.8200 A=    0.0000 R=    0.0000 C=    0.0000
 XYZ=   -3.6123   -2.2838    7.6500 Q=    0.4100 A=    0.0000 R=    0.0000 C=    0.0000
 XYZ=   -4.6359   -3.4499    8.1592 Q=    0.4100 A=    0.0000 R=    0.0000 C=    0.0000
 XYZ=    7.8831   -1.4718   -5.2051 Q=   -0.8200 A=    0.0000 R=    0.0000 C=    0.0000
 XYZ=    8.3631   -1.3820   -4.3324 Q=    0.4100 A=    0.0000 R=    0.0000 C=    0.0000
 XYZ=    8.0659   -2.3746   -5.5945 Q=    0.4100 A=    0.0000 R=    0.0000 C=    0.0000
 XYZ=   -8.1191    0.0518   -1.0027 Q=   -0.8200 A=    0.0000 R=    0.0000 C=    0.0000
 XYZ=   -7.7598   -0.2464   -1.8870 Q=    0.4100 A=    0.0000 R=    0.0000 C=    0.0000
 XYZ=   -7.8914   -0.6269   -0.3044 Q=    0.4100 A=    0.0000 R=    0.0000 C=    0.0000
 XYZ=    5.1211   -0.6469    6.5078 Q=   -0.8200 A=    0.0000 R=    0.0000 C=    0.0000
 XYZ=    5.8768   -0.4983    7.1458 Q=    0.4100 A=    0.0000 R=    0.0000 C=    0.0000
 XYZ=    5.2686   -1.5014    6.0097 Q=    0.4100 A=    0.0000 R=    0.0000 C=    0.0000
 XYZ=   -2.1523    2.2560    8.6456 Q=   -0.8200 A=    0.0000 R=    0.0000 C=    0.0000
 XYZ=   -2.6016    1.3771    8.4854 Q=    0.4100 A=    0.0000 R=    0.0000 C=    0.0000
 XYZ=   -2.0605    2.4090    9.6296 Q=    0.4100 A=    0.0000 R=    0.0000 C=    0.0000
 XYZ=   -7.2785    5.5872   -0.6054 Q=   -0.8200 A=    0.0000 R=    0.0000 C=    0.0000
 XYZ=   -6.9536    6.5324   -0.6390 Q=    0.4100 A=    0.0000 R=    0.0000 C=    0.0000
 XYZ=   -8.1874    5.5323   -1.0188 Q=    0.4100 A=    0.0000 R=    0.0000 C=    0.0000
 XYZ=    6.8389    4.8196   -1.9723 Q=   -0.8200 A=    0.0000 R=    0.0000 C=    0.0000
 XYZ=    7.5366    4.2145   -1.5886 Q=    0.4100 A=    0.0000 R=    0.0000 C=    0.0000
 XYZ=    6.9646    5.7438   -1.6118 Q=    0.4100 A=    0.0000 R=    0.0000 C=    0.0000
 XYZ=    8.6839   -1.3187    0.3217 Q=   -0.8200 A=    0.0000 R=    0.0000 C=    0.0000
 XYZ=    9.0854   -2.1125    0.7786 Q=    0.4100 A=    0.0000 R=    0.0000 C=    0.0000
 XYZ=    8.5505   -0.5837    0.9865 Q=    0.4100 A=    0.0000 R=    0.0000 C=    0.0000
 XYZ=   -2.9874    4.3229    7.6119 Q=   -0.8200 A=    0.0000 R=    0.0000 C=    0.0000
 XYZ=   -2.1259    4.7749    7.3801 Q=    0.4100 A=    0.0000 R=    0.0000 C=    0.0000
 XYZ=   -2.8104    3.3660    7.8417 Q=    0.4100 A=    0.0000 R=    0.0000 C=    0.0000
 XYZ=    2.3082   -7.0737   -7.1471 Q=   -0.8200 A=    0.0000 R=    0.0000 C=    0.0000
 XYZ=    3.1042   -7.6682   -7.2605 Q=    0.4100 A=    0.0000 R=    0.0000 C=    0.0000
 XYZ=    2.5060   -6.1740   -7.5363 Q=    0.4100 A=    0.0000 R=    0.0000 C=    0.0000
 XYZ=    8.4077    3.1342   -1.2985 Q=   -0.8200 A=    0.0000 R=    0.0000 C=    0.0000
 XYZ=    7.9086    2.3097   -1.0317 Q=    0.4100 A=    0.0000 R=    0.0000 C=    0.0000
 XYZ=    8.9447    3.4645   -0.5222 Q=    0.4100 A=    0.0000 R=    0.0000 C=    0.0000
 XYZ=   -5.8506   -6.0667   -0.6152 Q=   -0.8200 A=    0.0000 R=    0.0000 C=    0.0000
 XYZ=   -5.5635   -5.8834   -1.5554 Q=    0.4100 A=    0.0000 R=    0.0000 C=    0.0000
 XYZ=   -5.9279   -7.0541   -0.4768 Q=    0.4100 A=    0.0000 R=    0.0000 C=    0.0000
 XYZ=    5.9305    3.3769   -6.9056 Q=   -0.8200 A=    0.0000 R=    0.0000 C=    0.0000
 XYZ=    6.4269    4.1701   -7.2583 Q=    0.4100 A=    0.0000 R=    0.0000 C=    0.0000
 XYZ=    6.4489    2.9657   -6.1557 Q=    0.4100 A=    0.0000 R=    0.0000 C=    0.0000
 XYZ=   -1.0045   -7.4331    5.1595 Q=   -0.8200 A=    0.0000 R=    0.0000 C=    0.0000
 XYZ=   -1.8788   -7.4865    5.6422 Q=    0.4100 A=    0.0000 R=    0.0000 C=    0.0000
 XYZ=   -1.0644   -7.9469    4.3036 Q=    0.4100 A=    0.0000 R=    0.0000 C=    0.0000
 XYZ=    0.4053   -5.5694   -8.6204 Q=   -0.8200 A=    0.0000 R=    0.0000 C=    0.0000
 XYZ=    0.3886   -6.5371   -8.3688 Q=    0.4100 A=    0.0000 R=    0.0000 C=    0.0000
 XYZ=    1.3311   -5.2102   -8.5024 Q=    0.4100 A=    0.0000 R=    0.0000 C=    0.0000
 XYZ=   -5.2813   -5.8357   -2.7948 Q=   -0.8200 A=    0.0000 R=    0.0000 C=    0.0000
 XYZ=   -4.8307   -6.7220   -2.9013 Q=    0.4100 A=    0.0000 R=    0.0000 C=    0.0000
 XYZ=   -5.5357   -5.4809   -3.6946 Q=    0.4100 A=    0.0000 R=    0.0000 C=    0.0000
 XYZ=   -0.4251    8.2104    5.3013 Q=   -0.8200 A=    0.0000 R=    0.0000 C=    0.0000
 XYZ=    0.2469    7.4706    5.3363 Q=    0.4100 A=    0.0000 R=    0.0000 C=    0.0000
 XYZ=   -1.3471    7.8232    5.2996 Q=    0.4100 A=    0.0000 R=    0.0000 C=    0.0000
 XYZ=   -4.9707    8.9896   -1.8500 Q=   -0.8200 A=    0.0000 R=    0.0000 C=    0.0000
 XYZ=   -5.3493    9.7577   -1.3336 Q=    0.4100 A=    0.0000 R=    0.0000 C=    0.0000
 XYZ=   -4.0740    8.7482   -1.4787 Q=    0.4100 A=    0.0000 R=    0.0000 C=    0.0000
 XYZ=   -8.7599    1.0273    2.3666 Q=   -0.8200 A=    0.0000 R=    0.0000 C=    0.0000
 XYZ=   -8.4432    1.8081    1.8280 Q=    0.4100 A=    0.0000 R=    0.0000 C=    0.0000
 XYZ=   -8.4126    1.1043    3.3012 Q=    0.4100 A=    0.0000 R=    0.0000 C=    0.0000
 XYZ=    8.7852   -4.9623   -1.1856 Q=   -0.8200 A=    0.0000 R=    0.0000 C=    0.0000
 XYZ=    8.5152   -4.8774   -2.1448 Q=    0.4100 A=    0.0000 R=    0.0000 C=    0.0000
 XYZ=    9.1892   -5.8641   -1.0316 Q=    0.4100 A=    0.0000 R=    0.0000 C=    0.0000
 XYZ=   -7.4534   -4.3907    0.5476 Q=   -0.8200 A=    0.0000 R=    0.0000 C=    0.0000
 XYZ=   -6.8264   -5.0993    0.2241 Q=    0.4100 A=    0.0000 R=    0.0000 C=    0.0000
 XYZ=   -7.2408   -4.1663    1.4987 Q=    0.4100 A=    0.0000 R=    0.0000 C=    0.0000
 XYZ=   -0.6009    4.7573   -9.2769 Q=   -0.8200 A=    0.0000 R=    0.0000 C=    0.0000
 XYZ=   -1.2290    5.0815   -8.5696 Q=    0.4100 A=    0.0000 R=    0.0000 C=    0.0000
 XYZ=    0.1913    4.3248   -8.8463 Q=    0.4100 A=    0.0000 R=    0.0000 C=    0.0000
 XYZ=   -7.2711    3.1768   -5.2539 Q=   -0.8200 A=    0.0000 R=    0.0000 C=    0.0000
 XYZ=   -7.3434    3.4282   -6.2190 Q=    0.4100 A=    0.0000 R=    0.0000 C=    0.0000
 XYZ=   -6.7098    2.3540   -5.1649 Q=    0.4100 A=    0.0000 R=    0.0000 C=    0.0000
 XYZ=    7.4095    4.6240    2.1553 Q=   -0.8200 A=    0.0000 R=    0.0000 C=    0.0000
 XYZ=    7.7615    4.4435    3.0738 Q=    0.4100 A=    0.0000 R=    0.0000 C=    0.0000
 XYZ=    6.5508    4.1285    2.0241 Q=    0.4100 A=    0.0000 R=    0.0000 C=    0.0000
 XYZ=    8.7450    1.1901   -3.9719 Q=   -0.8200 A=    0.0000 R=    0.0000 C=    0.0000
 XYZ=    9.4262    1.7557   -3.5070 Q=    0.4100 A=    0.0000 R=    0.0000 C=    0.0000
 XYZ=    8.8256    0.2446   -3.6564 Q=    0.4100 A=    0.0000 R=    0.0000 C=    0.0000
 XYZ=    7.4199    2.7202   -5.0889 Q=   -0.8200 A=    0.0000 R=    0.0000 C=    0.0000
 XYZ=    7.7112    3.6153   -4.7511 Q=    0.4100 A=    0.0000 R=    0.0000 C=    0.0000
 XYZ=    7.9240    2.0025   -4.6085 Q=    0.4100 A=    0.0000 R=    0.0000 C=    0.0000
 XYZ=    3.5546   -2.0969  -10.2378 Q=   -0.8200 A=    0.0000 R=    0.0000 C=    0.0000
 XYZ=    3.4915   -1.8093   -9.2821 Q=    0.4100 A=    0.0000 R=    0.0000 C=    0.0000
 XYZ=    4.4848   -2.4090  -10.4312 Q=    0.4100 A=    0.0000 R=    0.0000 C=    0.0000
 XYZ=    4.7297    1.8550   -8.4937 Q=   -0.8200 A=    0.0000 R=    0.0000 C=    0.0000
 XYZ=    5.2261    2.5100   -7.9240 Q=    0.4100 A=    0.0000 R=    0.0000 C=    0.0000
 XYZ=    5.1233    0.9435   -8.3736 Q=    0.4100 A=    0.0000 R=    0.0000 C=    0.0000
 XYZ=   -2.5849    7.4142    5.4243 Q=   -0.8200 A=    0.0000 R=    0.0000 C=    0.0000
 XYZ=   -3.4351    7.6112    4.9360 Q=    0.4100 A=    0.0000 R=    0.0000 C=    0.0000
 XYZ=   -2.7917    7.1916    6.3771 Q=    0.4100 A=    0.0000 R=    0.0000 C=    0.0000
 XYZ=   -2.0694   -5.6477   -8.2008 Q=   -0.8200 A=    0.0000 R=    0.0000 C=    0.0000
 XYZ=   -1.0826   -5.5413   -8.0788 Q=    0.4100 A=    0.0000 R=    0.0000 C=    0.0000
 XYZ=   -2.4110   -6.3400   -7.5650 Q=    0.4100 A=    0.0000 R=    0.0000 C=    0.0000
 XYZ=   -7.1268    5.0746    3.6667 Q=   -0.8200 A=    0.0000 R=    0.0000 C=    0.0000
 XYZ=   -7.9027    5.6487    3.4051 Q=    0.4100 A=    0.0000 R=    0.0000 C=    0.0000
 XYZ=   -7.4275    4.3908    4.3316 Q=    0.4100 A=    0.0000 R=    0.0000 C=    0.0000
 XYZ=   -9.1449   -1.2882    2.0084 Q=   -0.8200 A=    0.0000 R=    0.0000 C=    0.0000
 XYZ=   -8.4494   -1.5678    1.3465 Q=    0.4100 A=    0.0000 R=    0.0000 C=    0.0000
 XYZ=   -8.9534   -0.3574    2.3198 Q=    0.4100 A=    0.0000 R=    0.0000 C=    0.0000
 XYZ=    1.3770    3.2411    9.5040 Q=   -0.8200 A=    0.0000 R=    0.0000 C=    0.0000
 XYZ=    2.3761    3.2325    9.5463 Q=    0.4100 A=    0.0000 R=    0.0000 C=    0.0000
 XYZ=    1.0819    3.0793    8.5623 Q=    0.4100 A=    0.0000 R=    0.0000 C=    0.0000
 XYZ=   -3.0894    9.1583    2.5506 Q=   -0.8200 A=    0.0000 R=    0.0000 C=    0.0000
 XYZ=   -3.6284    8.6534    3.2248 Q=    0.4100 A=    0.0000 R=    0.0000 C=    0.0000
 XYZ=   -3.6726    9.8288    2.0921 Q=    0.4100 A=    0.0000 R=    0.0000 C=    0.0000
 XYZ=    5.8941   -4.2748   -7.7512 Q=   -0.8200 A=    0.0000 R=    0.0000 C=    0.0000
 XYZ=    6.7503   -4.7022   -7.4607 Q=    0.4100 A=    0.0000 R=    0.0000 C=    0.0000
 XYZ=    5.5058   -4.7917   -8.5142 Q=    0.4100 A=    0.0000 R=    0.0000 C=    0.0000
 XYZ=   -2.3478   -1.6355   -9.9102 Q=   -0.8200 A=    0.0000 R=    0.0000 C=    0.0000
 XYZ=   -2.4384   -2.5118  -10.3834 Q=    0.4100 A=    0.0000 R=    0.0000 C=    0.0000
 XYZ=   -2.3778   -1.7857   -8.9220 Q=    0.4100 A=    0.0000 R=    0.0000 C=    0.0000
 XYZ=   -6.0618    1.3892   -7.5280 Q=   -0.8200 A=    0.0000 R=    0.0000 C=    0.0000
 XYZ=   -6.1984    0.4848   -7.9321 Q=    0.4100 A=    0.0000 R=    0.0000 C=    0.0000
 XYZ=   -6.0796    1.3149   -6.5309 Q=    0.4100 A=    0.0000 R=    0.0000 C=    0.0000
 XYZ=   -7.5243   -3.4855    4.9758 Q=   -0.8200 A=    0.0000 R=    0.0000 C=    0.0000
 XYZ=   -8.2989   -2.9299    4.6735 Q=    0.4100 A=    0.0000 R=    0.0000 C=    0.0000
 XYZ=   -6.8765   -2.9104    5.4755 Q=    0.4100 A=    0.0000 R=    0.0000 C=    0.0000
 XYZ=    6.6993    7.0634   -1.4418 Q=   -0.8200 A=    0.0000 R=    0.0000 C=    0.0000
 XYZ=    5.7628    6.9440   -1.7718 Q=    0.4100 A=    0.0000 R=    0.0000 C=    0.0000
 XYZ=    6.6824    7.3091   -0.4726 Q=    0.4100 A=    0.0000 R=    0.0000 C=    0.0000
 XYZ=   -5.8549    6.3005    5.1872 Q=   -0.8200 A=    0.0000 R=    0.0000 C=    0.0000
 XYZ=   -6.4866    6.6331    5.8875 Q=    0.4100 A=    0.0000 R=    0.0000 C=    0.0000
 XYZ=   -6.3579    5.7559    4.5162 Q=    0.4100 A=    0.0000 R=    0.0000 C=    0.0000
 XYZ=   -4.6396    7.9999    4.0996 Q=   -0.8200 A=    0.0000 R=    0.0000 C=    0.0000
 XYZ=   -5.1612    7.1978    4.3905 Q=    0.4100 A=    0.0000 R=    0.0000 C=    0.0000
 XYZ=   -5.2005    8.8203    4.2103 Q=    0.4100 A=    0.0000 R=    0.0000 C=    0.0000
 XYZ=    7.9895    4.9780   -3.9420 Q=   -0.8200 A=    0.0000 R=    0.0000 C=    0.0000
 XYZ=    7.4054    4.8944   -3.1346 Q=    0.4100 A=    0.0000 R=    0.0000 C=    0.0000
 XYZ=    8.9454    4.8528   -3.6763 Q=    0.4100 A=    0.0000 R=    0.0000 C=    0.0000
 XYZ=    9.2989   -3.3156    1.5719 Q=   -0.8200 A=    0.0000 R=    0.0000 C=    0.0000
 XYZ=    8.4953   -3.8620    1.8080 Q=    0.4100 A=    0.0000 R=    0.0000 C=    0.0000
 XYZ=    9.9710   -3.8940    1.1095 Q=    0.4100 A=    0.0000 R=    0.0000 C=    0.0000
 XYZ=   -4.4774    8.7224   -4.2699 Q=   -0.8200 A=    0.0000 R=    0.0000 C=    0.0000
 XYZ=   -4.7726    8.8496   -3.3229 Q=    0.4100 A=    0.0000 R=    0.0000 C=    0.0000
 XYZ=   -4.3241    7.7496   -4.4433 Q=    0.4100 A=    0.0000 R=    0.0000 C=    0.0000
 XYZ=    6.3545    6.6801    2.6280 Q=   -0.8200 A=    0.0000 R=    0.0000 C=    0.0000
 XYZ=    5.5353    6.2584    3.0168 Q=    0.4100 A=    0.0000 R=    0.0000 C=    0.0000
 XYZ=    6.9392    5.9710    2.2340 Q=    0.4100 A=    0.0000 R=    0.0000 C=    0.0000
 XYZ=   -0.8518    9.4975    3.2691 Q=   -0.8200 A=    0.0000 R=    0.0000 C=    0.0000
 XYZ=   -1.7958    9.5173    2.9398 Q=    0.4100 A=    0.0000 R=    0.0000 C=    0.0000
 XYZ=   -0.8154    9.0221    4.1482 Q=    0.4100 A=    0.0000 R=    0.0000 C=    0.0000
 XYZ=   -4.1659    2.6970   -8.4163 Q=   -0.8200 A=    0.0000 R=    0.0000 C=    0.0000
 XYZ=   -5.0400    2.2667   -8.1906 Q=    0.4100 A=    0.0000 R=    0.0000 C=    0.0000
 XYZ=   -4.2984    3.6818   -8.5285 Q=    0.4100 A=    0.0000 R=    0.0000 C=    0.0000
 XYZ=    4.5248    1.8917    7.6302 Q=   -0.8200 A=    0.0000 R=    0.0000 C=    0.0000
 XYZ=    5.2686    2.5118    7.3807 Q=    0.4100 A=    0.0000 R=    0.0000 C=    0.0000
 XYZ=    4.0516    2.2463    8.4367 Q=    0.4100 A=    0.0000 R=    0.0000 C=    0.0000
 XYZ=   -8.2305   -0.7916    5.9593 Q=   -0.8200 A=    0.0000 R=    0.0000 C=    0.0000
 XYZ=   -8.7879   -1.3767    5.3701 Q=    0.4100 A=    0.0000 R=    0.0000 C=    0.0000
 XYZ=   -7.3448   -1.2274    6.1198 Q=    0.4100 A=    0.0000 R=    0.0000 C=    0.0000
 XYZ=   -8.6335    3.1913   -3.3003 Q=   -0.8200 A=    0.0000 R=    0.0000 C=    0.0000
 XYZ=   -8.0333    3.1391   -4.0985 Q=    0.4100 A=    0.0000 R=    0.0000 C=    0.0000
 XYZ=   -9.4975    2.7301   -3.5022 Q=    0.4100 A=    0.0000 R=    0.0000 C=    0.0000
 XYZ=    7.9486   -5.9126   -4.6914 Q=   -0.8200 A=    0.0000 R=    0.0000 C=    0.0000
 XYZ=    8.0047   -5.5763   -5.6316 Q=    0.4100 A=    0.0000 R=    0.0000 C=    0.0000
 XYZ=    8.8646   -6.1482   -4.3665 Q=    0.4100 A=    0.0000 R=    0.0000 C=    0.0000
 XYZ=   -0.3491   -5.1589    8.7963 Q=   -0.8200 A=    0.0000 R=    0.0000 C=    0.0000
 XYZ=    0.2364   -4.8740    8.0373 Q=    0.4100 A=    0.0000 R=    0.0000 C=    0.0000
 XYZ=    0.2127   -5.5688    9.5149 Q=    0.4100 A=    0.0000 R=    0.0000 C=    0.0000
 XYZ=   -9.5705    4.4752    1.9130 Q=   -0.8200 A=    0.0000 R=    0.0000 C=    0.0000
 XYZ=   -8.8684    3.9937    1.3884 Q=    0.4100 A=    0.0000 R=    0.0000 C=    0.0000
 XYZ=  -10.0439    3.8272    2.5097 Q=    0.4100 A=    0.0000 R=    0.0000 C=    0.0000
 XYZ=    7.3288   -8.0080    0.1226 Q=   -0.8200 A=    0.0000 R=    0.0000 C=    0.0000
 XYZ=    7.0871   -7.3416    0.8279 Q=    0.4100 A=    0.0000 R=    0.0000 C=    0.0000
 XYZ=    7.6948   -8.8324    0.5545 Q=    0.4100 A=    0.0000 R=    0.0000 C=    0.0000
 XYZ=    6.9679   -1.9558   -8.8416 Q=   -0.8200 A=    0.0000 R=    0.0000 C=    0.0000
 XYZ=    6.3737   -1.2242   -8.5073 Q=    0.4100 A=    0.0000 R=    0.0000 C=    0.0000
 XYZ=    6.6941   -2.8234   -8.4266 Q=    0.4100 A=    0.0000 R=    0.0000 C=    0.0000
 XYZ=   -6.8688    7.8670   -0.9409 Q=   -0.8200 A=    0.0000 R=    0.0000 C=    0.0000
 XYZ=   -6.1211    8.2856   -1.4564 Q=    0.4100 A=    0.0000 R=    0.0000 C=    0.0000
 XYZ=   -7.3740    8.5771   -0.4504 Q=    0.4100 A=    0.0000 R=    0.0000 C=    0.0000
 XYZ=   -4.8341    5.7839    7.3913 Q=   -0.8200 A=    0.0000 R=    0.0000 C=    0.0000
 XYZ=   -5.1428    5.9538    6.4554 Q=    0.4100 A=    0.0000 R=    0.0000 C=    0.0000
 XYZ=   -4.1283    5.0755    7.3860 Q=    0.4100 A=    0.0000 R=    0.0000 C=    0.0000
 XYZ=    0.3987   -7.9276   -8.1482 Q=   -0.8200 A=    0.0000 R=    0.0000 C=    0.0000
 XYZ=   -0.2755   -8.3190   -7.5218 Q=    0.4100 A=    0.0000 R=    0.0000 C=    0.0000
 XYZ=    1.2112   -7.6527   -7.6340 Q=    0.4100 A=    0.0000 R=    0.0000 C=    0.0000
 XYZ=   10.6547   -1.1304   -1.0852 Q=   -0.8200 A=    0.0000 R=    0.0000 C=    0.0000
 XYZ=   11.5047   -1.2553   -0.5734 Q=    0.4100 A=    0.0000 R=    0.0000 C=    0.0000
 XYZ=    9.8762   -1.3470   -0.4961 Q=    0.4100 A=    0.0000 R=    0.0000 C=    0.0000
 XYZ=   -8.3854    3.2492    5.4688 Q=   -0.8200 A=    0.0000 R=    0.0000 C=    0.0000
 XYZ=   -8.2037    3.1121    6.4425 Q=    0.4100 A=    0.0000 R=    0.0000 C=    0.0000
 XYZ=   -8.1430    2.4204    4.9645 Q=    0.4100 A=    0.0000 R=    0.0000 C=    0.0000
 XYZ=    1.2640    1.2259  -10.3985 Q=   -0.8200 A=    0.0000 R=    0.0000 C=    0.0000
 XYZ=    0.7079    2.0565  -10.4296 Q=    0.4100 A=    0.0000 R=    0.0000 C=    0.0000
 XYZ=    0.6672    0.4240  -10.4289 Q=    0.4100 A=    0.0000 R=    0.0000 C=    0.0000
 XYZ=   -0.1713   -0.6453  -10.5103 Q=   -0.8200 A=    0.0000 R=    0.0000 C=    0.0000
 XYZ=    0.4151   -1.4442  -10.6445 Q=    0.4100 A=    0.0000 R=    0.0000 C=    0.0000
 XYZ=   -1.0785   -0.9437  -10.2139 Q=    0.4100 A=    0.0000 R=    0.0000 C=    0.0000
 XYZ=   -0.2997   11.4150   -0.2872 Q=   -0.8200 A=    0.0000 R=    0.0000 C=    0.0000
 XYZ=    0.6031   11.8272   -0.4103 Q=    0.4100 A=    0.0000 R=    0.0000 C=    0.0000
 XYZ=   -0.3194   10.5179   -0.7286 Q=    0.4100 A=    0.0000 R=    0.0000 C=    0.0000
 XYZ=    6.5267    6.1155   -5.3747 Q=   -0.8200 A=    0.0000 R=    0.0000 C=    0.0000
 XYZ=    7.1625    5.7637   -4.6876 Q=    0.4100 A=    0.0000 R=    0.0000 C=    0.0000
 XYZ=    6.7553    5.7298   -6.2686 Q=    0.4100 A=    0.0000 R=    0.0000 C=    0.0000
 XYZ=   -0.2619   -4.4717  -10.4182 Q=   -0.8200 A=    0.0000 R=    0.0000 C=    0.0000
 XYZ=    0.4343   -3.7663  -10.5519 Q=    0.4100 A=    0.0000 R=    0.0000 C=    0.0000
 XYZ=   -0.0089   -5.0463   -9.6398 Q=    0.4100 A=    0.0000 R=    0.0000 C=    0.0000
 XYZ=    6.1290    3.4348    6.7340 Q=   -0.8200 A=    0.0000 R=    0.0000 C=    0.0000
 XYZ=    6.4171    2.9909    5.8854 Q=    0.4100 A=    0.0000 R=    0.0000 C=    0.0000
 XYZ=    6.8963    3.4583    7.3749 Q=    0.4100 A=    0.0000 R=    0.0000 C=    0.0000
 XYZ=   -9.3863    5.2830   -1.8308 Q=   -0.8200 A=    0.0000 R=    0.0000 C=    0.0000
 XYZ=   -9.9296    5.8003   -2.4921 Q=    0.4100 A=    0.0000 R=    0.0000 C=    0.0000
 XYZ=   -8.9230    4.5293   -2.2970 Q=    0.4100 A=    0.0000 R=    0.0000 C=    0.0000
 XYZ=   -6.0992   -5.1436   -4.9633 Q=   -0.8200 A=    0.0000 R=    0.0000 C=    0.0000
 XYZ=   -6.2703   -4.9940   -5.9371 Q=    0.4100 A=    0.0000 R=    0.0000 C=    0.0000
 XYZ=   -6.9205   -5.5199   -4.5345 Q=    0.4100 A=    0.0000 R=    0.0000 C=    0.0000
 XYZ=    8.2332    2.9671    4.7902 Q=   -0.8200 A=    0.0000 R=    0.0000 C=    0.0000
 XYZ=    7.3592    2.6214    4.4486 Q=    0.4100 A=    0.0000 R=    0.0000 C=    0.0000
 XYZ=    8.9129    2.2338    4.7690 Q=    0.4100 A=    0.0000 R=    0.0000 C=    0.0000
 XYZ=    5.8643    7.9600    0.6775 Q=   -0.8200 A=    0.0000 R=    0.0000 C=    0.0000
 XYZ=    6.3427    8.8376    0.7088 Q=    0.4100 A=    0.0000 R=    0.0000 C=    0.0000
 XYZ=    5.9122    7.5222    1.5753 Q=    0.4100 A=    0.0000 R=    0.0000 C=    0.0000
 XYZ=  -10.5239   -0.0326   -1.0084 Q=   -0.8200 A=    0.0000 R=    0.0000 C=    0.0000
 XYZ=  -11.0111    0.8408   -1.0062 Q=    0.4100 A=    0.0000 R=    0.0000 C=    0.0000
 XYZ=   -9.5383    0.1357   -1.0279 Q=    0.4100 A=    0.0000 R=    0.0000 C=    0.0000
 XYZ=    1.2536   -2.4674  -10.8362 Q=   -0.8200 A=    0.0000 R=    0.0000 C=    0.0000
 XYZ=    2.1984   -2.3227  -10.5420 Q=    0.4100 A=    0.0000 R=    0.0000 C=    0.0000
 XYZ=    1.2003   -2.3976  -11.8323 Q=    0.4100 A=    0.0000 R=    0.0000 C=    0.0000
 XYZ=    0.2800    3.4407  -10.9409 Q=   -0.8200 A=    0.0000 R=    0.0000 C=    0.0000
 XYZ=   -0.2207    3.9248  -10.2233 Q=    0.4100 A=    0.0000 R=    0.0000 C=    0.0000
 XYZ=    1.2584    3.6250  -10.8470 Q=    0.4100 A=    0.0000 R=    0.0000 C=    0.0000
 XYZ=   -4.3837   -9.1460    0.9021 Q=   -0.8200 A=    0.0000 R=    0.0000 C=    0.0000
 XYZ=   -5.2336   -8.9075    0.4322 Q=    0.4100 A=    0.0000 R=    0.0000 C=    0.0000
 XYZ=   -3.9354   -9.8980    0.4189 Q=    0.4100 A=    0.0000 R=    0.0000 C=    0.0000
 XYZ=   -3.0864   -7.1918    6.2495 Q=   -0.8200 A=    0.0000 R=    0.0000 C=    0.0000
 XYZ=   -2.8426   -6.6972    7.0838 Q=    0.4100 A=    0.0000 R=    0.0000 C=    0.0000
 XYZ=   -4.0752   -7.3393    6.2264 Q=    0.4100 A=    0.0000 R=    0.0000 C=    0.0000
 XYZ=   -5.2781   -7.2165   -5.8330 Q=   -0.8200 A=    0.0000 R=    0.0000 C=    0.0000
 XYZ=   -5.3150   -6.2524   -5.5703 Q=    0.4100 A=    0.0000 R=    0.0000 C=    0.0000
 XYZ=   -5.9169   -7.7402   -5.2694 Q=    0.4100 A=    0.0000 R=    0.0000 C=    0.0000
 XYZ=    4.8053    5.4160    6.5681 Q=   -0.8200 A=    0.0000 R=    0.0000 C=    0.0000
 XYZ=    5.3842    6.2309    6.5394 Q=    0.4100 A=    0.0000 R=    0.0000 C=    0.0000
 XYZ=    5.3810    4.5984    6.5793 Q=    0.4100 A=    0.0000 R=    0.0000 C=    0.0000
 XYZ=   -9.3189   -2.2458    4.2560 Q=   -0.8200 A=    0.0000 R=    0.0000 C=    0.0000
 XYZ=   -9.3222   -2.0047    3.2855 Q=    0.4100 A=    0.0000 R=    0.0000 C=    0.0000
 XYZ=  -10.1367   -2.7803    4.4694 Q=    0.4100 A=    0.0000 R=    0.0000 C=    0.0000
 XYZ=    9.3726   -7.2127   -1.4331 Q=   -0.8200 A=    0.0000 R=    0.0000 C=    0.0000
 XYZ=    8.4070   -7.4180   -1.2733 Q=    0.4100 A=    0.0000 R=    0.0000 C=    0.0000
 XYZ=    9.9394   -7.8884   -0.9618 Q=    0.4100 A=    0.0000 R=    0.0000 C=    0.0000
 XYZ=   -4.0700    2.3584  -10.7420 Q=   -0.8200 A=    0.0000 R=    0.0000 C=    0.0000
 XYZ=   -3.7761    2.3653   -9.7862 Q=    0.4100 A=    0.0000 R=    0.0000 C=    0.0000
 XYZ=   -3.8041    1.4928  -11.1663 Q=    0.4100 A=    0.0000 R=    0.0000 C=    0.0000
 XYZ=   -1.7629   -3.5602    9.8644 Q=   -0.8200 A=    0.0000 R=    0.0000 C=    0.0000
 XYZ=   -1.1094   -4.1584    9.4006 Q=    0.4100 A=    0.0000 R=    0.0000 C=    0.0000
 XYZ=   -2.4356   -4.1163   10.3525 Q=    0.4100 A=    0.0000 R=    0.0000 C=    0.0000
 XYZ=    6.1355    0.1325    8.4345 Q=   -0.8200 A=    0.0000 R=    0.0000 C=    0.0000
 XYZ=    5.4568    0.8120    8.1556 Q=    0.4100 A=    0.0000 R=    0.0000 C=    0.0000
 XYZ=    6.9711    0.5970    8.7277 Q=    0.4100 A=    0.0000 R=    0.0000 C=    0.0000
 XYZ=    7.8865   -5.2688   -6.9755 Q=   -0.8200 A=    0.0000 R=    0.0000 C=    0.0000
 XYZ=    8.4918   -4.4887   -6.8174 Q=    0.4100 A=    0.0000 R=    0.0000 C=    0.0000
 XYZ=    8.4219   -6.0429   -7.3137 Q=    0.4100 A=    0.0000 R=    0.0000 C=    0.0000
 XYZ=   -6.8712   -7.2397    4.4185 Q=   -0.8200 A=    0.0000 R=    0.0000 C=    0.0000
 XYZ=   -6.2911   -6.6776    3.8290 Q=    0.4100 A=    0.0000 R=    0.0000 C=    0.0000
 XYZ=   -7.5584   -6.6617    4.8587 Q=    0.4100 A=    0.0000 R=    0.0000 C=    0.0000
 XYZ=   10.2749    2.4466   -2.4767 Q=   -0.8200 A=    0.0000 R=    0.0000 C=    0.0000
 XYZ=    9.5142    2.8156   -1.9426 Q=    0.4100 A=    0.0000 R=    0.0000 C=    0.0000
 XYZ=   10.8804    1.9233   -1.8769 Q=    0.4100 A=    0.0000 R=    0.0000 C=    0.0000
 XYZ=   -2.3476   -6.1444    8.1547 Q=   -0.8200 A=    0.0000 R=    0.0000 C=    0.0000
 XYZ=   -1.4408   -5.7626    8.3336 Q=    0.4100 A=    0.0000 R=    0.0000 C=    0.0000
 XYZ=   -3.0471   -5.4832    8.4259 Q=    0.4100 A=    0.0000 R=    0.0000 C=    0.0000
 XYZ=   10.6678   -4.5773    0.3125 Q=   -0.8200 A=    0.0000 R=    0.0000 C=    0.0000
 XYZ=   10.0335   -4.6034   -0.4602 Q=    0.4100 A=    0.0000 R=    0.0000 C=    0.0000
 XYZ=   10.9733   -5.5057    0.5243 Q=    0.4100 A=    0.0000 R=    0.0000 C=    0.0000
 XYZ=   -3.5923    5.3914    9.6563 Q=   -0.8200 A=    0.0000 R=    0.0000 C=    0.0000
 XYZ=   -3.7167    6.3609    9.4446 Q=    0.4100 A=    0.0000 R=    0.0000 C=    0.0000
 XYZ=   -3.3328    4.8994    8.8253 Q=    0.4100 A=    0.0000 R=    0.0000 C=    0.0000
 XYZ=    9.3647    3.9936    0.8638 Q=   -0.8200 A=    0.0000 R=    0.0000 C=    0.0000
 XYZ=    8.5118    4.3466    1.2485 Q=    0.4100 A=    0.0000 R=    0.0000 C=    0.0000
 XYZ=   10.0046    4.7490    0.7228 Q=    0.4100 A=    0.0000 R=    0.0000 C=    0.0000
 XYZ=   -1.4511   -9.1355   -6.8259 Q=   -0.8200 A=    0.0000 R=    0.0000 C=    0.0000
 XYZ=   -2.2039   -8.4825   -6.7428 Q=    0.4100 A=    0.0000 R=    0.0000 C=    0.0000
 XYZ=   -1.6899   -9.8355   -7.4991 Q=    0.4100 A=    0.0000 R=    0.0000 C=    0.0000
 XYZ=   -0.4123   11.6446    2.1378 Q=   -0.8200 A=    0.0000 R=    0.0000 C=    0.0000
 XYZ=   -0.5675   10.7708    2.5986 Q=    0.4100 A=    0.0000 R=    0.0000 C=    0.0000
 XYZ=   -0.5074   11.5218    1.1499 Q=    0.4100 A=    0.0000 R=    0.0000 C=    0.0000
 XYZ=   -3.4251  -10.3612    3.2840 Q=   -0.8200 A=    0.0000 R=    0.0000 C=    0.0000
 XYZ=   -2.8434   -9.6100    3.5958 Q=    0.4100 A=    0.0000 R=    0.0000 C=    0.0000
 XYZ=   -3.7049  -10.1958    2.3383 Q=    0.4100 A=    0.0000 R=    0.0000 C=    0.0000
 XYZ=    0.2862    5.2574    9.6238 Q=   -0.8200 A=    0.0000 R=    0.0000 C=    0.0000
 XYZ=   -0.5497    5.2826   10.1721 Q=    0.4100 A=    0.0000 R=    0.0000 C=    0.0000
 XYZ=    0.6544    4.3276    9.6201 Q=    0.4100 A=    0.0000 R=    0.0000 C=    0.0000
 XYZ=   10.4784    1.8223    1.2118 Q=   -0.8200 A=    0.0000 R=    0.0000 C=    0.0000
 XYZ=    9.8219    1.1238    1.4966 Q=    0.4100 A=    0.0000 R=    0.0000 C=    0.0000
 XYZ=   10.0008    2.6888    1.0662 Q=    0.4100 A=    0.0000 R=    0.0000 C=    0.0000
 XYZ=   -3.3650   -7.7547   -6.9986 Q=   -0.8200 A=    0.0000 R=    0.0000 C=    0.0000
 XYZ=   -3.6937   -8.0110   -7.9076 Q=    0.4100 A=    0.0000 R=    0.0000 C=    0.0000
 XYZ=   -4.1434   -7.5179   -6.4173 Q=    0.4100 A=    0.0000 R=    0.0000 C=    0.0000
 XYZ=    9.4174   -3.3095   -6.2638 Q=   -0.8200 A=    0.0000 R=    0.0000 C=    0.0000
 XYZ=   10.3411   -3.5526   -5.9677 Q=    0.4100 A=    0.0000 R=    0.0000 C=    0.0000
 XYZ=    9.4598   -2.5143   -6.8687 Q=    0.4100 A=    0.0000 R=    0.0000 C=    0.0000
 XYZ=    4.7840   -5.0840   -9.7185 Q=   -0.8200 A=    0.0000 R=    0.0000 C=    0.0000
 XYZ=    4.8250   -5.8749  -10.3291 Q=    0.4100 A=    0.0000 R=    0.0000 C=    0.0000
 XYZ=    5.1114   -4.2722  -10.2021 Q=    0.4100 A=    0.0000 R=    0.0000 C=    0.0000
 XYZ=   -6.0833   -8.3679   -0.3694 Q=   -0.8200 A=    0.0000 R=    0.0000 C=    0.0000
 XYZ=   -6.8939   -8.3210    0.2144 Q=    0.4100 A=    0.0000 R=    0.0000 C=    0.0000
 XYZ=   -6.2866   -8.9198   -1.1782 Q=    0.4100 A=    0.0000 R=    0.0000 C=    0.0000
 XYZ=    8.1583   -8.5255    2.9396 Q=   -0.8200 A=    0.0000 R=    0.0000 C=    0.0000
 XYZ=    7.5176   -7.8001    2.6880 Q=    0.4100 A=    0.0000 R=    0.0000 C=    0.0000
 XYZ=    7.8483   -8.9665    3.7819 Q=    0.4100 A=    0.0000 R=    0.0000 C=    0.0000
 XYZ=   -3.4892    0.0890  -11.0771 Q=   -0.8200 A=    0.0000 R=    0.0000 C=    0.0000
 XYZ=   -3.1112   -0.6551  -10.5261 Q=    0.4100 A=    0.0000 R=    0.0000 C=    0.0000
 XYZ=   -4.4868    0.0214  -11.0887 Q=    0.4100 A=    0.0000 R=    0.0000 C=    0.0000
 XYZ=    4.1646   -1.0420    9.4821 Q=   -0.8200 A=    0.0000 R=    0.0000 C=    0.0000
 XYZ=    4.9790   -0.6290    9.0745 Q=    0.4100 A=    0.0000 R=    0.0000 C=    0.0000
 XYZ=    4.2133   -2.0366    9.3894 Q=    0.4100 A=    0.0000 R=    0.0000 C=    0.0000
 XYZ=    9.2123   -1.4930   -7.8315 Q=   -0.8200 A=    0.0000 R=    0.0000 C=    0.0000
 XYZ=    8.3322   -1.7897   -8.2019 Q=    0.4100 A=    0.0000 R=    0.0000 C=    0.0000
 XYZ=    9.1761   -0.5141   -7.6298 Q=    0.4100 A=    0.0000 R=    0.0000 C=    0.0000
 XYZ=   -4.0122    5.0291   -9.1055 Q=   -0.8200 A=    0.0000 R=    0.0000 C=    0.0000
 XYZ=   -3.7504    5.9510   -9.3911 Q=    0.4100 A=    0.0000 R=    0.0000 C=    0.0000
 XYZ=   -5.0080    4.9417   -9.1334 Q=    0.4100 A=    0.0000 R=    0.0000 C=    0.0000
 XYZ=   -0.9655   10.3854    5.9071 Q=   -0.8200 A=    0.0000 R=    0.0000 C=    0.0000
 XYZ=   -0.5475    9.4841    5.7938 Q=    0.4100 A=    0.0000 R=    0.0000 C=    0.0000
 XYZ=   -1.3894   10.6669    5.0462 Q=    0.4100 A=    0.0000 R=    0.0000 C=    0.0000
 XYZ=  -11.1418    0.9420    2.4535 Q=   -0.8200 A=    0.0000 R=    0.0000 C=    0.0000
 XYZ=  -10.1444    0.9896    2.5085 Q=    0.4100 A=    0.0000 R=    0.0000 C=    0.0000
 XYZ=  -11.4058    0.2577    1.7738 Q=    0.4100 A=    0.0000 R=    0.0000 C=    0.0000
 XYZ=    2.8031   -0.3462  -11.7078 Q=   -0.8200 A=    0.0000 R=    0.0000 C=    0.0000
 XYZ=    2.5354    0.4433  -11.1555 Q=    0.4100 A=    0.0000 R=    0.0000 C=    0.0000
 XYZ=    3.1274   -1.0779  -11.1082 Q=    0.4100 A=    0.0000 R=    0.0000 C=    0.0000
 XYZ=   -7.4324    3.6017   -7.7159 Q=   -0.8200 A=    0.0000 R=    0.0000 C=    0.0000
 XYZ=   -7.0086    4.2476   -8.3509 Q=    0.4100 A=    0.0000 R=    0.0000 C=    0.0000
 XYZ=   -6.8977    2.7569   -7.6935 Q=    0.4100 A=    0.0000 R=    0.0000 C=    0.0000
 XYZ=   -9.1423    6.3676    3.1774 Q=   -0.8200 A=    0.0000 R=    0.0000 C=    0.0000
 XYZ=   -9.3604    5.8905    4.0288 Q=    0.4100 A=    0.0000 R=    0.0000 C=    0.0000
 XYZ=   -9.3138    5.7602    2.4017 Q=    0.4100 A=    0.0000 R=    0.0000 C=    0.0000
 XYZ=    3.7565    3.3940    9.3110 Q=   -0.8200 A=    0.0000 R=    0.0000 C=    0.0000
 XYZ=    4.2160    3.1706   10.1706 Q=    0.4100 A=    0.0000 R=    0.0000 C=    0.0000
 XYZ=    3.9696    4.3367    9.0543 Q=    0.4100 A=    0.0000 R=    0.0000 C=    0.0000
 XYZ=   -2.5396   10.0240   -4.9859 Q=   -0.8200 A=    0.0000 R=    0.0000 C=    0.0000
 XYZ=   -2.3985   10.9463   -4.6259 Q=    0.4100 A=    0.0000 R=    0.0000 C=    0.0000
 XYZ=   -3.4859    9.7442   -4.8241 Q=    0.4100 A=    0.0000 R=    0.0000 C=    0.0000
 XYZ=   -4.3365   -4.7275    8.8617 Q=   -0.8200 A=    0.0000 R=    0.0000 C=    0.0000
 XYZ=   -5.1030   -5.3603    8.7524 Q=    0.4100 A=    0.0000 R=    0.0000 C=    0.0000
 XYZ=   -4.0567   -4.7055    9.8215 Q=    0.4100 A=    0.0000 R=    0.0000 C=    0.0000
 XYZ=    5.6935   -3.0524  -10.6254 Q=   -0.8200 A=    0.0000 R=    0.0000 C=    0.0000
 XYZ=    5.9408   -2.8751  -11.5780 Q=    0.4100 A=    0.0000 R=    0.0000 C=    0.0000
 XYZ=    6.2333   -2.4617  -10.0254 Q=    0.4100 A=    0.0000 R=    0.0000 C=    0.0000
 XYZ=   -9.1703   -6.1001    1.4924 Q=   -0.8200 A=    0.0000 R=    0.0000 C=    0.0000
 XYZ=   -9.9550   -6.3759    0.9372 Q=    0.4100 A=    0.0000 R=    0.0000 C=    0.0000
 XYZ=   -8.6800   -5.3600    1.0322 Q=    0.4100 A=    0.0000 R=    0.0000 C=    0.0000
 XYZ=   -2.4968   -3.7043  -10.9831 Q=   -0.8200 A=    0.0000 R=    0.0000 C=    0.0000
 XYZ=   -1.8322   -4.2349  -10.4570 Q=    0.4100 A=    0.0000 R=    0.0000 C=    0.0000
 XYZ=   -2.1136   -3.4862  -11.8807 Q=    0.4100 A=    0.0000 R=    0.0000 C=    0.0000
 XYZ=    0.4996    2.3753   11.4849 Q=   -0.8200 A=    0.0000 R=    0.0000 C=    0.0000
 XYZ=    0.9205    2.6855   10.6324 Q=    0.4100 A=    0.0000 R=    0.0000 C=    0.0000
 XYZ=    0.5450    1.3775   11.5352 Q=    0.4100 A=    0.0000 R=    0.0000 C=    0.0000
 XYZ=   -0.6916   -1.8885   11.4449 Q=   -0.8200 A=    0.0000 R=    0.0000 C=    0.0000
 XYZ=   -0.9761   -2.5192   10.7229 Q=    0.4100 A=    0.0000 R=    0.0000 C=    0.0000
 XYZ=   -1.4506   -1.2785   11.6727 Q=    0.4100 A=    0.0000 R=    0.0000 C=    0.0000
 XYZ=    4.0542    5.7398    8.8555 Q=   -0.8200 A=    0.0000 R=    0.0000 C=    0.0000
 XYZ=    4.8892    6.1249    9.2486 Q=    0.4100 A=    0.0000 R=    0.0000 C=    0.0000
 XYZ=    4.1322    5.7225    7.8587 Q=    0.4100 A=    0.0000 R=    0.0000 C=    0.0000
 XYZ=   -2.8977   -6.7346  -10.1649 Q=   -0.8200 A=    0.0000 R=    0.0000 C=    0.0000
 XYZ=   -3.4880   -6.1193  -10.6874 Q=    0.4100 A=    0.0000 R=    0.0000 C=    0.0000
 XYZ=   -2.5800   -6.2696   -9.3385 Q=    0.4100 A=    0.0000 R=    0.0000 C=    0.0000
 XYZ=   -6.4692   -0.5712   -8.7139 Q=   -0.8200 A=    0.0000 R=    0.0000 C=    0.0000
 XYZ=   -7.3499   -1.0435   -8.6770 Q=    0.4100 A=    0.0000 R=    0.0000 C=    0.0000
 XYZ=   -6.1247   -0.5813   -9.6526 Q=    0.4100 A=    0.0000 R=    0.0000 C=    0.0000
 XYZ=   -8.4312   -5.7431    5.3943 Q=   -0.8200 A=    0.0000 R=    0.0000 C=    0.0000
 XYZ=   -9.2109   -5.9020    4.7885 Q=    0.4100 A=    0.0000 R=    0.0000 C=    0.0000
 XYZ=   -8.1832   -4.7746    5.3711 Q=    0.4100 A=    0.0000 R=    0.0000 C=    0.0000
 XYZ=  -11.2868   -0.9054    0.9590 Q=   -0.8200 A=    0.0000 R=    0.0000 C=    0.0000
 XYZ=  -10.9981   -0.7143    0.0208 Q=    0.4100 A=    0.0000 R=    0.0000 C=    0.0000
 XYZ=  -10.4839   -1.1052    1.5206 Q=    0.4100 A=    0.0000 R=    0.0000 C=    0.0000
 XYZ=  -10.8315    4.0524   -0.2586 Q=   -0.8200 A=    0.0000 R=    0.0000 C=    0.0000
 XYZ=  -10.3028    4.6587   -0.8527 Q=    0.4100 A=    0.0000 R=    0.0000 C=    0.0000
 XYZ=  -10.4319    4.0526    0.6582 Q=    0.4100 A=    0.0000 R=    0.0000 C=    0.0000
 XYZ=   -1.5843    0.5036  -12.1922 Q=   -0.8200 A=    0.0000 R=    0.0000 C=    0.0000
 XYZ=   -0.8226    0.1804  -11.6305 Q=    0.4100 A=    0.0000 R=    0.0000 C=    0.0000
 XYZ=   -2.4446    0.3544  -11.7048 Q=    0.4100 A=    0.0000 R=    0.0000 C=    0.0000
 XYZ=   10.1163   -6.7964   -3.6954 Q=   -0.8200 A=    0.0000 R=    0.0000 C=    0.0000
 XYZ=    9.7746   -6.7939   -2.7555 Q=    0.4100 A=    0.0000 R=    0.0000 C=    0.0000
 XYZ=   10.9394   -7.3617   -3.7492 Q=    0.4100 A=    0.0000 R=    0.0000 C=    0.0000
 XYZ=   11.3923    1.2320   -0.8501 Q=   -0.8200 A=    0.0000 R=    0.0000 C=    0.0000
 XYZ=   11.1615    0.2743   -1.0223 Q=    0.4100 A=    0.0000 R=    0.0000 C=    0.0000
 XYZ=   11.0995    1.4847    0.0721 Q=    0.4100 A=    0.0000 R=    0.0000 C=    0.0000
 XYZ=   -9.4189    1.0606    7.2680 Q=   -0.8200 A=    0.0000 R=    0.0000 C=    0.0000
 XYZ=   -8.9569    0.2888    6.8311 Q=    0.4100 A=    0.0000 R=    0.0000 C=    0.0000
 XYZ=   -8.8817    1.8926    7.1291 Q=    0.4100 A=    0.0000 R=    0.0000 C=    0.0000
 XYZ=   11.0976   -2.3532    3.1747 Q=   -0.8200 A=    0.0000 R=    0.0000 C=    0.0000
 XYZ=   10.3556   -2.6799    2.5892 Q=    0.4100 A=    0.0000 R=    0.0000 C=    0.0000
 XYZ=   10.8638   -2.5191    4.1327 Q=    0.4100 A=    0.0000 R=    0.0000 C=    0.0000
 XYZ=   -6.7402    5.0715    8.5055 Q=   -0.8200 A=    0.0000 R=    0.0000 C=    0.0000
 XYZ=   -7.4100    5.8068    8.6087 Q=    0.4100 A=    0.0000 R=    0.0000 C=    0.0000
 XYZ=   -5.9576    5.4048    7.9797 Q=    0.4100 A=    0.0000 R=    0.0000 C=    0.0000
 XYZ=   -1.5895    2.8235   10.9101 Q=   -0.8200 A=    0.0000 R=    0.0000 C=    0.0000
 XYZ=   -0.6361    2.6508   11.1579 Q=    0.4100 A=    0.0000 R=    0.0000 C=    0.0000
 XYZ=   -1.7252    3.8045   10.7712 Q=    0.4100 A=    0.0000 R=    0.0000 C=    0.0000
 XYZ=    6.9230    5.6174   -7.7223 Q=   -0.8200 A=    0.0000 R=    0.0000 C=    0.0000
 XYZ=    7.9130    5.7386   -7.6505 Q=    0.4100 A=    0.0000 R=    0.0000 C=    0.0000
 XYZ=    6.5412    6.3333   -8.3070 Q=    0.4100 A=    0.0000 R=    0.0000 C=    0.0000
 XYZ=   -9.3547    5.3206    5.3659 Q=   -0.8200 A=    0.0000 R=    0.0000 C=    0.0000
 XYZ=   -8.9139    4.4232    5.3416 Q=    0.4100 A=    0.0000 R=    0.0000 C=    0.0000
 XYZ=   -8.7519    5.9757    5.8215 Q=    0.4100 A=    0.0000 R=    0.0000 C=    0.0000
 XYZ=    9.0180    7.4608   -2.5393 Q=   -0.8200 A=    0.0000 R=    0.0000 C=    0.0000
 XYZ=    8.9276    7.8725   -3.4462 Q=    0.4100 A=    0.0000 R=    0.0000 C=    0.0000
 XYZ=    8.1097    7.2570   -2.1738 Q=    0.4100 A=    0.0000 R=    0.0000 C=    0.0000
 XYZ=    7.4465    7.4077    4.4839 Q=   -0.8200 A=    0.0000 R=    0.0000 C=    0.0000
 XYZ=    8.0430    6.6556    4.7643 Q=    0.4100 A=    0.0000 R=    0.0000 C=    0.0000
 XYZ=    6.9332    7.1397    3.6686 Q=    0.4100 A=    0.0000 R=    0.0000 C=    0.0000
 XYZ=   -1.8199    5.8902  -11.1964 Q=   -0.8200 A=    0.0000 R=    0.0000 C=    0.0000
 XYZ=   -2.3661    5.1236  -11.5342 Q=    0.4100 A=    0.0000 R=    0.0000 C=    0.0000
 XYZ=   -1.2050    5.5693  -10.4760 Q=    0.4100 A=    0.0000 R=    0.0000 C=    0.0000
 XYZ=   -6.3940   -4.8407   -7.1611 Q=   -0.8200 A=    0.0000 R=    0.0000 C=    0.0000
 XYZ=   -6.2864   -5.0539   -8.1322 Q=    0.4100 A=    0.0000 R=    0.0000 C=    0.0000
 XYZ=   -6.7766   -3.9221   -7.0620 Q=    0.4100 A=    0.0000 R=    0.0000 C=    0.0000
 XYZ=    2.9606   -0.0532   11.1650 Q=   -0.8200 A=    0.0000 R=    0.0000 C=    0.0000
 XYZ=    3.5343   -0.4790   10.4652 Q=    0.4100 A=    0.0000 R=    0.0000 C=    0.0000
 XYZ=    3.5406    0.3252   11.8864 Q=    0.4100 A=    0.0000 R=    0.0000 C=    0.0000
 XYZ=   -8.0534    3.1708    7.7409 Q=   -0.8200 A=    0.0000 R=    0.0000 C=    0.0000
 XYZ=   -7.8756    2.5675    8.5184 Q=    0.4100 A=    0.0000 R=    0.0000 C=    0.0000
 XYZ=   -7.4324    3.9538    7.7778 Q=    0.4100 A=    0.0000 R=    0.0000 C=    0.0000
 XYZ=   -7.9577   -6.1533   -3.9006 Q=   -0.8200 A=    0.0000 R=    0.0000 C=    0.0000
 XYZ=   -7.9237   -6.0804   -2.9038 Q=    0.4100 A=    0.0000 R=    0.0000 C=    0.0000
 XYZ=   -8.8094   -6.6010   -4.1731 Q=    0.4100 A=    0.0000 R=    0.0000 C=    0.0000
 XYZ=   -3.4459  -10.9666   -0.0608 Q=   -0.8200 A=    0.0000 R=    0.0000 C=    0.0000
 XYZ=   -2.7655  -11.6700    0.1449 Q=    0.4100 A=    0.0000 R=    0.0000 C=    0.0000
 XYZ=   -3.7881  -11.0959   -0.9915 Q=    0.4100 A=    0.0000 R=    0.0000 C=    0.0000
 XYZ=   -4.6413   11.1864    1.3075 Q=   -0.8200 A=    0.0000 R=    0.0000 C=    0.0000
 XYZ=   -5.2938   11.2946    2.0576 Q=    0.4100 A=    0.0000 R=    0.0000 C=    0.0000
 XYZ=   -5.1356   10.9816    0.4627 Q=    0.4100 A=    0.0000 R=    0.0000 C=    0.0000
 XYZ=   -2.3356  -11.0509   -5.0930 Q=   -0.8200 A=    0.0000 R=    0.0000 C=    0.0000
 XYZ=   -2.0343  -10.8224   -4.1673 Q=    0.4100 A=    0.0000 R=    0.0000 C=    0.0000
 XYZ=   -2.1397  -10.2853   -5.7058 Q=    0.4100 A=    0.0000 R=    0.0000 C=    0.0000
 XYZ=    0.6760    0.0536   11.6681 Q=   -0.8200 A=    0.0000 R=    0.0000 C=    0.0000
 XYZ=    0.1879   -0.8053   11.5125 Q=    0.4100 A=    0.0000 R=    0.0000 C=    0.0000
 XYZ=    1.6220   -0.0397   11.3575 Q=    0.4100 A=    0.0000 R=    0.0000 C=    0.0000
 XYZ=   -5.8371   10.3928   -5.2312 Q=   -0.8200 A=    0.0000 R=    0.0000 C=    0.0000
 XYZ=   -5.3535    9.6010   -4.8582 Q=    0.4100 A=    0.0000 R=    0.0000 C=    0.0000
 XYZ=   -5.3141   10.7740   -5.9936 Q=    0.4100 A=    0.0000 R=    0.0000 C=    0.0000
 XYZ=   -4.4726    7.6321    8.8561 Q=   -0.8200 A=    0.0000 R=    0.0000 C=    0.0000
 XYZ=   -4.6113    6.9556    8.1328 Q=    0.4100 A=    0.0000 R=    0.0000 C=    0.0000
 XYZ=   -5.3175    7.7372    9.3806 Q=    0.4100 A=    0.0000 R=    0.0000 C=    0.0000
 XYZ=    9.3902   -4.3858    6.5555 Q=   -0.8200 A=    0.0000 R=    0.0000 C=    0.0000
 XYZ=    8.4797   -4.6466    6.2346 Q=    0.4100 A=    0.0000 R=    0.0000 C=    0.0000
 XYZ=    9.5695   -4.8201    7.4383 Q=    0.4100 A=    0.0000 R=    0.0000 C=    0.0000
 XYZ=   -6.2190   10.6084   -0.4705 Q=   -0.8200 A=    0.0000 R=    0.0000 C=    0.0000
 XYZ=   -6.5378   11.3555   -1.0538 Q=    0.4100 A=    0.0000 R=    0.0000 C=    0.0000
 XYZ=   -7.0064   10.1205   -0.0936 Q=    0.4100 A=    0.0000 R=    0.0000 C=    0.0000
 XYZ=   -5.4614   -7.5634    6.4425 Q=   -0.8200 A=    0.0000 R=    0.0000 C=    0.0000
 XYZ=   -6.1413   -7.4521    5.7177 Q=    0.4100 A=    0.0000 R=    0.0000 C=    0.0000
 XYZ=   -5.6289   -6.8903    7.1628 Q=    0.4100 A=    0.0000 R=    0.0000 C=    0.0000
 XYZ=   10.3269    4.5274   -3.6573 Q=   -0.8200 A=    0.0000 R=    0.0000 C=    0.0000
 XYZ=   10.6863    5.2587   -3.0777 Q=    0.4100 A=    0.0000 R=    0.0000 C=    0.0000
 XYZ=   10.3746    3.6581   -3.1652 Q=    0.4100 A=    0.0000 R=    0.0000 C=    0.0000
 XYZ=    1.7638   12.2127    2.1006 Q=   -0.8200 A=    0.0000 R=    0.0000 C=    0.0000
 XYZ=    0.8201   11.9107    2.2354 Q=    0.4100 A=    0.0000 R=    0.0000 C=    0.0000
 XYZ=    1.8026   13.2113    2.1371 Q=    0.4100 A=    0.0000 R=    0.0000 C=    0.0000
 XYZ=   -1.0345    7.5011    9.7518 Q=   -0.8200 A=    0.0000 R=    0.0000 C=    0.0000
 XYZ=   -0.8204    7.7313   10.7011 Q=    0.4100 A=    0.0000 R=    0.0000 C=    0.0000
 XYZ=   -0.4150    6.7828    9.4351 Q=    0.4100 A=    0.0000 R=    0.0000 C=    0.0000
 XYZ=   -1.0995    2.7336  -12.7569 Q=   -0.8200 A=    0.0000 R=    0.0000 C=    0.0000
 XYZ=   -0.4606    2.9998  -12.0351 Q=    0.4100 A=    0.0000 R=    0.0000 C=    0.0000
 XYZ=   -1.3578    1.7751  -12.6364 Q=    0.4100 A=    0.0000 R=    0.0000 C=    0.0000
 XYZ=   -5.7600    9.9172    4.5822 Q=   -0.8200 A=    0.0000 R=    0.0000 C=    0.0000
 XYZ=   -5.1682   10.4283    5.2056 Q=    0.4100 A=    0.0000 R=    0.0000 C=    0.0000
 XYZ=   -5.9995   10.4945    3.8016 Q=    0.4100 A=    0.0000 R=    0.0000 C=    0.0000
 XYZ=   -1.6585    5.1506   10.9008 Q=   -0.8200 A=    0.0000 R=    0.0000 C=    0.0000
 XYZ=   -1.6945    5.7386   11.7090 Q=    0.4100 A=    0.0000 R=    0.0000 C=    0.0000
 XYZ=   -2.5346    5.1906   10.4203 Q=    0.4100 A=    0.0000 R=    0.0000 C=    0.0000
 XYZ=  -11.5626    2.1324   -1.2289 Q=   -0.8200 A=    0.0000 R=    0.0000 C=    0.0000
 XYZ=  -12.5329    2.1550   -1.4697 Q=    0.4100 A=    0.0000 R=    0.0000 C=    0.0000
 XYZ=  -11.3056    2.9980   -0.7991 Q=    0.4100 A=    0.0000 R=    0.0000 C=    0.0000
 XYZ=   -6.8975   -8.2464   -4.3395 Q=   -0.8200 A=    0.0000 R=    0.0000 C=    0.0000
 XYZ=   -7.2653   -7.3380   -4.1406 Q=    0.4100 A=    0.0000 R=    0.0000 C=    0.0000
 XYZ=   -7.6510   -8.8962   -4.4406 Q=    0.4100 A=    0.0000 R=    0.0000 C=    0.0000
 XYZ=  -10.8625    2.4746   -3.5102 Q=   -0.8200 A=    0.0000 R=    0.0000 C=    0.0000
 XYZ=  -11.0856    2.1690   -2.5845 Q=    0.4100 A=    0.0000 R=    0.0000 C=    0.0000
 XYZ=  -11.6179    2.2511   -4.1261 Q=    0.4100 A=    0.0000 R=    0.0000 C=    0.0000
 XYZ=    2.4218    5.8727   10.6483 Q=   -0.8200 A=    0.0000 R=    0.0000 C=    0.0000
 XYZ=    1.5840    5.5417   10.2141 Q=    0.4100 A=    0.0000 R=    0.0000 C=    0.0000
 XYZ=    3.1380    5.9728    9.9576 Q=    0.4100 A=    0.0000 R=    0.0000 C=    0.0000
 XYZ=   -8.1242    9.5010    0.5477 Q=   -0.8200 A=    0.0000 R=    0.0000 C=    0.0000
 XYZ=   -8.7522   10.0903    0.0395 Q=    0.4100 A=    0.0000 R=    0.0000 C=    0.0000
 XYZ=   -8.5567    9.2108    1.4015 Q=    0.4100 A=    0.0000 R=    0.0000 C=    0.0000
 XYZ=   -7.7544    6.9706    6.2599 Q=   -0.8200 A=    0.0000 R=    0.0000 C=    0.0000
 XYZ=   -7.9456    7.8023    5.7384 Q=    0.4100 A=    0.0000 R=    0.0000 C=    0.0000
 XYZ=   -8.0172    7.1083    7.2149 Q=    0.4100 A=    0.0000 R=    0.0000 C=    0.0000
 XYZ=   -3.2028    1.4846   12.1398 Q=   -0.8200 A=    0.0000 R=    0.0000 C=    0.0000
 XYZ=   -4.0793    1.9404   11.9852 Q=    0.4100 A=    0.0000 R=    0.0000 C=    0.0000
 XYZ=   -2.4793    1.9825   11.6615 Q=    0.4100 A=    0.0000 R=    0.0000 C=    0.0000
 XYZ=    0.1395   -9.4873  -10.0934 Q=   -0.8200 A=    0.0000 R=    0.0000 C=    0.0000
 XYZ=    0.2569   -9.0399  -10.9801 Q=    0.4100 A=    0.0000 R=    0.0000 C=    0.0000
 XYZ=    0.2164   -8.8072   -9.3642 Q=    0.4100 A=    0.0000 R=    0.0000 C=    0.0000
 XYZ=  -10.9258    3.0740    3.3899 Q=   -0.8200 A=    0.0000 R=    0.0000 C=    0.0000
 XYZ=  -11.4375    3.1044    4.2485 Q=    0.4100 A=    0.0000 R=    0.0000 C=    0.0000
 XYZ=  -11.0704    2.1892    2.9469 Q=    0.4100 A=    0.0000 R=    0.0000 C=    0.0000
 XYZ=   -7.9446   -8.1115    1.1762 Q=   -0.8200 A=    0.0000 R=    0.0000 C=    0.0000
 XYZ=   -8.4010   -7.2255    1.2594 Q=    0.4100 A=    0.0000 R=    0.0000 C=    0.0000
 XYZ=   -7.6043   -8.3965    2.0724 Q=    0.4100 A=    0.0000 R=    0.0000 C=    0.0000
 XYZ=   -0.8151   -6.4108  -11.6984 Q=   -0.8200 A=    0.0000 R=    0.0000 C=    0.0000
 XYZ=   -1.4957   -6.6967  -11.0238 Q=    0.4100 A=    0.0000 R=    0.0000 C=    0.0000
 XYZ=   -0.4081   -5.5427  -11.4140 Q=    0.4100 A=    0.0000 R=    0.0000 C=    0.0000
 XYZ=   -1.8486   13.2272   -0.8005 Q=   -0.8200 A=    0.0000 R=    0.0000 C=    0.0000
 XYZ=   -1.2318   12.4927   -0.5177 Q=    0.4100 A=    0.0000 R=    0.0000 C=    0.0000
 XYZ=   -2.5533   13.3577   -0.1029 Q=    0.4100 A=    0.0000 R=    0.0000 C=    0.0000
[...]
    40  H    0.000000   0.000000  -0.000001   0.000000   0.000000   0.000000
    41  H    0.000000   0.000000  -0.000086   0.000001  -0.000059   0.000000
    42  O    0.003583   0.003598   0.000000   0.000000   0.000000  -0.000207
    43  H   -0.000250   0.000047   0.000000   0.000000   0.000000   0.000049
    44  H   -0.001991  -0.001410   0.000000   0.000000   0.000000   0.000012
    45  O    0.000003   0.000000   0.000000   0.000000   0.000000   0.000000
    46  H    0.000000   0.000000   0.000000   0.000000   0.000000   0.000000
    47  H    0.000000   0.000000   0.000000   0.000000   0.000000   0.000000
    48  O    0.000000   0.000000   0.000000   0.000000   0.000000   0.002462
    49  H    0.000000   0.000000   0.000000   0.000000   0.000000  -0.000007
    50  H    0.000000   0.000000   0.000000   0.000000   0.000000   0.000955
              31         32         33         34         35         36
     1  C   -0.000010   0.000011  -0.000077   0.000028   0.000001  -0.000272
     2  H    0.000000  -0.000002  -0.000002   0.000000   0.000000   0.000003
     3  H    0.000000   0.000000   0.000000   0.000000   0.000000   0.000000
     4  C   -0.000013  -0.000093  -0.000059  -0.000170   0.000014  -0.001852
     5  H    0.000000   0.000000   0.000000   0.000000   0.000000   0.000000
     6  C   -0.000001   0.000027  -0.000227   0.000022  -0.000026   0.000048
     7  H    0.000000   0.000000   0.000000   0.000000   0.000000   0.000000
     8  O    0.000000  -0.000001  -0.000143  -0.000033   0.000003  -0.000003
     9  O    0.000000   0.000000   0.000007   0.000013   0.000000   0.000000
    10  H    0.000000   0.000000   0.000000   0.000000   0.000000   0.000000
    11  H    0.000000   0.000000   0.000000   0.000000   0.000000   0.000000
    12  O    0.000000  -0.000010  -0.065114   0.009311   0.000942   0.000012
    13  H    0.000000   0.000000   0.001046   0.001328   0.000032   0.000000
    14  H    0.000000   0.000000  -0.000222   0.002575   0.000101   0.000000
    15  O    0.000000   0.000000   0.000000   0.000000   0.000000   0.000000
    16  H    0.000000   0.000000   0.000000   0.000000   0.000000   0.000000
    17  H    0.000000   0.000000   0.000000   0.000000   0.000000   0.000000
    18  O    0.000000   0.000000   0.000543   0.000706   0.000017   0.000000
    19  H    0.000000   0.000000   0.000015   0.000000   0.000000   0.000000
    20  H    0.000000   0.000000  -0.000014   0.000008   0.000000   0.000000
    21  O    0.000000   0.000000   0.000000   0.000000   0.000000   0.000000
    22  H    0.000000   0.000000   0.000000   0.000000   0.000000   0.000000
    23  H    0.000000   0.000000   0.000000   0.000000   0.000000   0.000000
    24  O    0.000000   0.000000   0.000000   0.000000   0.000000  -0.000001
    25  H    0.000000   0.000000   0.000000   0.000000   0.000000   0.000000
    26  H    0.000000   0.000000   0.000000   0.000000   0.000000   0.000000
    27  O    0.000000   0.000000   0.000000   0.000000   0.000000   0.000000
    28  H    0.000000   0.000000   0.000000   0.000000   0.000000   0.000000
    29  H    0.000000   0.000000   0.000000   0.000000   0.000000   0.000000
    30  O    0.208394   0.213027   0.001390  -0.000052  -0.000090  -0.120304
    31  H    0.174052  -0.002809   0.000009   0.000000   0.000001   0.002785
    32  H   -0.002809   0.144827  -0.000178   0.000015   0.000018  -0.000276
    33  O    0.000009  -0.000178   8.982170   0.128217   0.203445  -0.000229
    34  H    0.000000   0.000015   0.128217   0.214366  -0.001781   0.000005
    35  H    0.000001   0.000018   0.203445  -0.001781   0.212113   0.000028
    36  O    0.002785  -0.000276  -0.000229   0.000005   0.000028   9.044858
    37  H    0.001410   0.000020  -0.000043  -0.000001  -0.000003   0.207703
    38  H   -0.000009  -0.000075   0.000002   0.000000   0.000000   0.211807
    39  O    0.000000   0.000000  -0.001675   0.000331   0.000041   0.000000
    40  H    0.000000   0.000000   0.000066  -0.000125  -0.000001   0.000000
    41  H    0.000000   0.000000  -0.000134  -0.000136   0.000001   0.000000
    42  O    0.000017   0.000016   0.000005   0.000000   0.000000   0.000014
    43  H   -0.000007  -0.000001   0.000000   0.000000   0.000000   0.000000
    44  H    0.000000   0.000000   0.000000   0.000000   0.000000   0.000000
    45  O    0.000000   0.000000   0.000000   0.000000   0.000000   0.000000
    46  H    0.000000   0.000000   0.000000   0.000000   0.000000   0.000000
    47  H    0.000000   0.000000   0.000000   0.000000   0.000000   0.000000
    48  O    0.000041  -0.000014  -0.000002   0.000000   0.000000  -0.096657
    49  H    0.000001   0.000000   0.000000   0.000000   0.000000   0.002274
    50  H   -0.000029  -0.000002   0.000000   0.000000   0.000000   0.000641
              37         38         39         40         41         42
     1  C   -0.000013  -0.000258   0.000003   0.000095  -0.000055  -0.009074
     2  H   -0.000001   0.000000   0.000000   0.000000   0.000000   0.000185
     3  H    0.000000   0.000000   0.000000   0.000000   0.000000   0.000009
     4  C   -0.000052   0.000250  -0.003046   0.000422   0.001925   0.005525
     5  H    0.000000   0.000000   0.000001   0.000000   0.000000  -0.000003
     6  C   -0.000004  -0.000003   0.001907   0.000697   0.001342   0.003721
     7  H    0.000000   0.000000   0.000001  -0.000002  -0.000016  -0.000002
     8  O    0.000000   0.000000  -0.009817   0.000636   0.001666  -0.001978
     9  O    0.000000   0.000000   0.001281  -0.001019  -0.001916   0.000046
    10  H    0.000000   0.000000  -0.000591   0.000007  -0.000014  -0.000002
    11  H    0.000000   0.000000  -0.001275   0.000032   0.000360  -0.000001
    12  O    0.000000   0.000000  -0.011458   0.000472   0.004751   0.000002
    13  H    0.000000   0.000000  -0.001020  -0.000212  -0.002044   0.000000
    14  H    0.000000   0.000000  -0.001582  -0.000351   0.000051   0.000000
    15  O    0.000000   0.000000   0.000000   0.000000   0.000000  -0.003323
    16  H    0.000000   0.000000   0.000000   0.000000   0.000000   0.000275
    17  H    0.000000   0.000000   0.000000   0.000000   0.000000  -0.000025
    18  O    0.000000   0.000000  -0.137623   0.004301  -0.018878  -0.000015
    19  H    0.000000   0.000000  -0.002824   0.000020   0.006307   0.000000
    20  H    0.000000   0.000000   0.002239   0.000037  -0.000147   0.000000
    21  O    0.000000   0.000000   0.000000   0.000000   0.000000   0.000099
    22  H    0.000000   0.000000   0.000000   0.000000   0.000000  -0.000001
    23  H    0.000000   0.000000   0.000000   0.000000   0.000000   0.000000
    24  O    0.000000   0.000000   0.000083  -0.000022  -0.000002  -0.098949
    25  H    0.000000   0.000000   0.000000   0.000000   0.000000   0.003583
    26  H    0.000000   0.000000  -0.000012   0.000000   0.000000   0.003598
    27  O    0.000000   0.000000   0.000053  -0.000001  -0.000086   0.000000
    28  H    0.000000   0.000000   0.000003   0.000000   0.000001   0.000000
    29  H    0.000000   0.000000   0.000168   0.000000  -0.000059   0.000000
    30  O    0.006785   0.003183  -0.000001   0.000000   0.000000  -0.000207
    31  H    0.001410  -0.000009   0.000000   0.000000   0.000000   0.000017
    32  H    0.000020  -0.000075   0.000000   0.000000   0.000000   0.000016
    33  O   -0.000043   0.000002  -0.001675   0.000066  -0.000134   0.000005
    34  H   -0.000001   0.000000   0.000331  -0.000125  -0.000136   0.000000
    35  H   -0.000003   0.000000   0.000041  -0.000001   0.000001   0.000000
    36  O    0.207703   0.211807   0.000000   0.000000   0.000000   0.000014
    37  H    0.193428  -0.009348   0.000000   0.000000   0.000000   0.000001
    38  H   -0.009348   0.194606   0.000000   0.000000   0.000000   0.000000
    39  O    0.000000   0.000000   9.137577   0.194802   0.098538  -0.000002
    40  H    0.000000   0.000000   0.194802   0.198564   0.000441   0.000001
    41  H    0.000000   0.000000   0.098538   0.000441   0.274674   0.000001
    42  O    0.000001   0.000000  -0.000002   0.000001   0.000001   9.015259
    43  H    0.000000   0.000000   0.000000   0.000000   0.000000   0.201540
    44  H    0.000000   0.000000   0.000001   0.000000   0.000000   0.135206
    45  O    0.000000   0.000000   0.000000   0.000000   0.000000   0.000001
    46  H    0.000000   0.000000   0.000000   0.000000   0.000000   0.000000
    47  H    0.000000   0.000000   0.000000   0.000000   0.000000   0.000000
    48  O    0.004894  -0.000646   0.000000   0.000000   0.000000  -0.000023
    49  H   -0.000026   0.001125   0.000000   0.000000   0.000000   0.000000
    50  H   -0.000297   0.000609   0.000000   0.000000   0.000000   0.000001
              43         44         45         46         47         48
     1  C    0.000730   0.003240   0.000052   0.000098  -0.000035  -0.005845
     2  H   -0.000003   0.000084   0.000000   0.000000   0.000000  -0.000053
     3  H   -0.000001  -0.000004  -0.000004   0.000000   0.000000  -0.000078
     4  C    0.000353  -0.003171  -0.000066  -0.000072  -0.000344   0.009386
     5  H    0.000000   0.000000  -0.000063  -0.000001   0.000000  -0.000001
     6  C   -0.000536   0.001548   0.000291  -0.000006   0.000255  -0.000821
     7  H    0.000000  -0.000001  -0.000003   0.000000   0.000000   0.000000
     8  O    0.000025  -0.000718   0.000000   0.000000   0.000000   0.000011
     9  O   -0.000001  -0.000025   0.000001   0.000000   0.000000   0.000000
    10  H    0.000000   0.000000   0.000000   0.000000   0.000000   0.000000
    11  H    0.000000   0.000000   0.000000   0.000000   0.000000   0.000000
    12  O    0.000000   0.000000   0.000000   0.000000   0.000000   0.000000
    13  H    0.000000   0.000000   0.000000   0.000000   0.000000   0.000000
    14  H    0.000000   0.000000   0.000000   0.000000   0.000000   0.000000
    15  O    0.000277   0.003380  -0.000087  -0.000005   0.000035   0.000000
    16  H   -0.000062  -0.000057   0.000012   0.000000   0.000000   0.000000
    17  H   -0.000004  -0.000077   0.000322  -0.000002  -0.000003   0.000000
    18  O    0.000000   0.000000   0.000000   0.000000   0.000000   0.000000
    19  H    0.000000   0.000000   0.000000   0.000000   0.000000   0.000000
    20  H    0.000000   0.000000   0.000000   0.000000   0.000000   0.000000
    21  O   -0.000004   0.000015  -0.040672   0.000947   0.000373  -0.000001
    22  H    0.000000   0.000000  -0.001018  -0.000018   0.000035   0.000000
    23  H    0.000000   0.000000   0.030204   0.000246  -0.001200   0.000000
    24  O    0.001437   0.031979   0.000027   0.000000  -0.000001   0.000000
    25  H   -0.000250  -0.001991   0.000003   0.000000   0.000000   0.000000
    26  H    0.000047  -0.001410   0.000000   0.000000   0.000000   0.000000
    27  O    0.000000   0.000000   0.000000   0.000000   0.000000   0.000000
    28  H    0.000000   0.000000   0.000000   0.000000   0.000000   0.000000
    29  H    0.000000   0.000000   0.000000   0.000000   0.000000   0.000000
    30  O    0.000049   0.000012   0.000000   0.000000   0.000000   0.002462
    31  H   -0.000007   0.000000   0.000000   0.000000   0.000000   0.000041
    32  H   -0.000001   0.000000   0.000000   0.000000   0.000000  -0.000014
    33  O    0.000000   0.000000   0.000000   0.000000   0.000000  -0.000002
    34  H    0.000000   0.000000   0.000000   0.000000   0.000000   0.000000
    35  H    0.000000   0.000000   0.000000   0.000000   0.000000   0.000000
    36  O    0.000000   0.000000   0.000000   0.000000   0.000000  -0.096657
    37  H    0.000000   0.000000   0.000000   0.000000   0.000000   0.004894
    38  H    0.000000   0.000000   0.000000   0.000000   0.000000  -0.000646
    39  O    0.000000   0.000001   0.000000   0.000000   0.000000   0.000000
    40  H    0.000000   0.000000   0.000000   0.000000   0.000000   0.000000
    41  H    0.000000   0.000000   0.000000   0.000000   0.000000   0.000000
    42  O    0.201540   0.135206   0.000001   0.000000   0.000000  -0.000023
    43  H    0.213828  -0.001849   0.000000   0.000000   0.000000  -0.000004
    44  H   -0.001849   0.194872   0.000000   0.000000   0.000000   0.000001
    45  O    0.000000   0.000000   8.813455   0.211438   0.207853   0.000000
    46  H    0.000000   0.000000   0.211438   0.179503  -0.003632   0.000000
    47  H    0.000000   0.000000   0.207853  -0.003632   0.164118   0.000000
    48  O   -0.000004   0.000001   0.000000   0.000000   0.000000   8.754290
    49  H    0.000000   0.000000   0.000000   0.000000   0.000000   0.221852
    50  H    0.000000   0.000000   0.000000   0.000000   0.000000   0.231737
              49         50
     1  C    0.000005  -0.000462
     2  H    0.000000  -0.000001
     3  H    0.000000   0.000003
     4  C   -0.000302   0.000338
     5  H    0.000000   0.000000
     6  C    0.000015   0.000053
     7  H    0.000000   0.000000
     8  O    0.000000   0.000000
     9  O    0.000000   0.000000
    10  H    0.000000   0.000000
    11  H    0.000000   0.000000
    12  O    0.000000   0.000000
    13  H    0.000000   0.000000
    14  H    0.000000   0.000000
    15  O    0.000000   0.000000
    16  H    0.000000   0.000000
    17  H    0.000000   0.000000
    18  O    0.000000   0.000000
    19  H    0.000000   0.000000
    20  H    0.000000   0.000000
    21  O    0.000000   0.000000
    22  H    0.000000   0.000000
    23  H    0.000000   0.000000
    24  O    0.000000   0.000000
    25  H    0.000000   0.000000
    26  H    0.000000   0.000000
    27  O    0.000000   0.000000
    28  H    0.000000   0.000000
    29  H    0.000000   0.000000
    30  O   -0.000007   0.000955
    31  H    0.000001  -0.000029
    32  H    0.000000  -0.000002
    33  O    0.000000   0.000000
    34  H    0.000000   0.000000
    35  H    0.000000   0.000000
    36  O    0.002274   0.000641
    37  H   -0.000026  -0.000297
    38  H    0.001125   0.000609
    39  O    0.000000   0.000000
    40  H    0.000000   0.000000
    41  H    0.000000   0.000000
    42  O    0.000000   0.000001
    43  H    0.000000   0.000000
    44  H    0.000000   0.000000
    45  O    0.000000   0.000000
    46  H    0.000000   0.000000
    47  H    0.000000   0.000000
    48  O    0.221852   0.231737
    49  H    0.191122  -0.011526
    50  H   -0.011526   0.234135
 Mulliken charges:
               1
     1  C   -0.346984
     2  H    0.269227
     3  H    0.228979
     4  C   -0.204354
     5  H    0.220403
     6  C    0.079432
     7  H    0.148088
     8  O   -0.265223
     9  O   -1.298969
    10  H    0.485666
    11  H    0.700163
    12  O   -1.210897
    13  H    0.599159
    14  H    0.623652
    15  O   -1.253108
    16  H    0.620581
    17  H    0.617887
    18  O   -1.331320
    19  H    0.675375
    20  H    0.675461
    21  O   -1.103495
    22  H    0.517323
    23  H    0.604301
    24  O   -1.126633
    25  H    0.630105
    26  H    0.495742
    27  O   -1.245068
    28  H    0.613489
    29  H    0.638272
    30  O   -1.221813
    31  H    0.616168
    32  H    0.645503
    33  O   -1.248796
    34  H    0.645372
    35  H    0.585142
    36  O   -1.250585
    37  H    0.595546
    38  H    0.598758
    39  O   -1.266103
    40  H    0.601138
    41  H    0.633427
    42  O   -1.255499
    43  H    0.584435
    44  H    0.638965
    45  O   -1.221748
    46  H    0.611505
    47  H    0.632545
    48  O   -1.120527
    49  H    0.595468
    50  H    0.543845
 Sum of Mulliken charges =   0.00000
 Mulliken charges with hydrogens summed into heavy atoms:
               1
     1  C    0.151222
     4  C    0.016049
     6  C    0.227520
     8  O   -0.265223
     9  O   -0.113139
    12  O    0.011915
    15  O   -0.014640
    18  O    0.019516
    21  O    0.018129
    24  O   -0.000786
    27  O    0.006693
    30  O    0.039857
    33  O   -0.018282
    36  O   -0.056281
    39  O   -0.031538
    42  O   -0.032099
    45  O    0.022303
    48  O    0.018786
 Electronic spatial extent (au):  <R**2>=          12973.2167
 Charge=              0.0000 electrons
 Dipole moment (field-independent basis, Debye):
    X=             20.2410    Y=              0.1221    Z=             -5.9023  Tot=             21.0843
 Quadrupole moment (field-independent basis, Debye-Ang):
   XX=            -81.0297   YY=           -104.6896   ZZ=           -143.0034
   XY=            -46.4322   XZ=            -14.4468   YZ=            -25.6316
 Traceless Quadrupole moment (field-independent basis, Debye-Ang):
   XX=             28.5445   YY=              4.8846   ZZ=            -33.4291
   XY=            -46.4322   XZ=            -14.4468   YZ=            -25.6316
 Octapole moment (field-independent basis, Debye-Ang**2):
  XXX=            702.6662  YYY=           -184.8444  ZZZ=            -98.9977  XYY=             95.6856
  XXY=             89.8956  XXZ=            -94.6500  XZZ=            117.3884  YZZ=             22.7428
  YYZ=             53.4909  XYZ=            174.0014
 Hexadecapole moment (field-independent basis, Debye-Ang**3):
 XXXX=          -3579.4600 YYYY=          -5595.4466 ZZZZ=          -2068.9164 XXXY=           -282.1841
 XXXZ=           -717.8629 YYYX=          -1655.6543 YYYZ=           -422.5485 ZZZX=           -230.7803
 ZZZY=            143.0492 XXYY=          -2599.1892 XXZZ=          -1141.2985 YYZZ=          -1531.1691
 XXYZ=           -781.9866 YYXZ=            -39.0072 ZZXY=           -130.9110
 N-N= 1.057627438196D+03 E-N=-6.082655593332D+03  KE= 1.249314491127D+03
 Leave Link  601 at Fri Sep 14 18:16:33 2018, MaxMem=    33554432 cpu:        10.4
 (Enter /usr/local/pacerepov1/gaussian/G09D01LINDA/g09/l9999.exe)

 Test job not archived.
 1\1\GINC-RICH133-B13-4-L\SP\RLC-wPBE TD-FC\6-31+G(d)\C3H32O15\ROOT\14-
 Sep-2018\0\\#p td=(nstates=15)/6-31+g(d) lc-wpbe charge\\Acroleina in 
 Water\\0,1\C,0,0.485154,0.480443,-1.430142\H,0,1.461403,0.187773,-1.05
 5732\H,0,0.429244,0.878853,-2.437062\C,0,-0.605127,0.346563,-0.658432\
 H,0,-1.591686,0.632893,-1.012412\C,0,-0.508516,-0.199107,0.712798\H,0,
 -1.458487,-0.272107,1.272438\O,0,0.544883,-0.561317,1.236519\O,0,-1.08
 786,-0.975433,3.272559\H,0,-0.94758,-0.417613,2.454519\H,0,-0.51222,-0
 .630423,4.013938\O,0,1.81456,-4.362883,1.778259\H,0,1.00952,-3.776803,
 1.870509\H,0,1.89347,-4.949953,2.583959\O,0,1.44482,4.109427,-0.158691
 \H,0,2.08851,4.687577,-0.660111\H,0,0.56622,4.097037,-0.636171\O,0,0.0
 6839,-3.043433,3.004429\H,0,-0.30006,-2.113763,3.005509\H,0,-0.64929,-
 3.686653,3.271229\O,0,-0.66845,4.453057,-1.065131\H,0,-0.36788,5.36568
 7,-1.342231\H,0,-1.66776,4.415407,-1.070341\O,0,2.046,2.294007,1.36170
 9\H,0,1.801929,3.050307,0.754649\H,0,1.88645,2.564047,2.311259\O,0,-3.
 258451,-1.468633,4.185489\H,0,-3.26405,-2.272493,4.780309\H,0,-2.34818
 1,-1.354993,3.787309\O,0,5.13709,-1.827153,-2.455041\H,0,5.995749,-1.3
 67373,-2.228401\H,0,4.83639,-2.375233,-1.674511\O,0,3.873199,-4.552253
 ,0.677719\H,0,2.99794,-4.321773,1.102989\H,0,3.73175,-5.261963,-0.0124
 61\O,0,3.94207,-2.682333,-4.195742\H,0,4.49732,-2.478743,-3.389321\H,0
 ,3.5671,-1.832203,-4.565501\O,0,1.79336,-2.697763,4.298269\H,0,2.51085
 9,-2.262643,3.754279\H,0,1.06728,-3.023523,3.692699\O,0,4.259429,1.980
 427,0.546519\H,0,4.252029,1.890177,-0.449391\H,0,3.31907,2.005017,0.88
 5909\O,0,-3.319231,4.643997,-0.990121\H,0,-4.143431,4.492457,-1.535811
 \H,0,-3.57771,4.951877,-0.074471\O,0,3.14044,-0.577123,-5.048192\H,0,2
 .86489,-0.157203,-5.912951\H,0,3.68142,0.075867,-4.518111\\Version=EM6
 4L-G09RevD.01\State=1-A\HF=-1759.0010885\RMSD=2.748e-09\PG=C01 [X(C3H3
 2O15)]\\@


 NO SCIENCE HAS EVER MADE MORE RAPID PROGRESS IN A
 SHORTER TIME THAN CHEMISTRY.
   -- MARTIN HEINRICH KLOPROTH, 1791
 (FIRST PROFESSOR OF CHEMISTRY AT THE UNIVERSITY OF BERLIN)
 Job cpu time:       0 days  3 hours 41 minutes  7.7 seconds.
 File lengths (MBytes):  RWF=    792 Int=      0 D2E=      0 Chk=     96 Scr=      2
 Normal termination of Gaussian 09 at Fri Sep 14 18:16:36 2018.
