 Entering Gaussian System, Link 0=g09
 Input=Acroleina_water_15_27c.gjf
 Output=Acroleina_water_15_27c.log
 Initial command:
 /usr/local/pacerepov1/gaussian/G09D01LINDA/g09/l1.exe /nv/hp18/holiveira7/scratch/22411855/Gau-20939.inp -scrdir=/nv/hp18/holiveira7/scratch/22411855/
 Entering Link 1 = /usr/local/pacerepov1/gaussian/G09D01LINDA/g09/l1.exe PID=     20940.
  
 Copyright (c) 1988,1990,1992,1993,1995,1998,2003,2009,2013,
            Gaussian, Inc.  All Rights Reserved.
  
 This is part of the Gaussian(R) 09 program.  It is based on
 the Gaussian(R) 03 system (copyright 2003, Gaussian, Inc.),
 the Gaussian(R) 98 system (copyright 1998, Gaussian, Inc.),
 the Gaussian(R) 94 system (copyright 1995, Gaussian, Inc.),
 the Gaussian 92(TM) system (copyright 1992, Gaussian, Inc.),
 the Gaussian 90(TM) system (copyright 1990, Gaussian, Inc.),
 the Gaussian 88(TM) system (copyright 1988, Gaussian, Inc.),
 the Gaussian 86(TM) system (copyright 1986, Carnegie Mellon
 University), and the Gaussian 82(TM) system (copyright 1983,
 Carnegie Mellon University). Gaussian is a federally registered
 trademark of Gaussian, Inc.
  
 This software contains proprietary and confidential information,
 including trade secrets, belonging to Gaussian, Inc.
  
 This software is provided under written license and may be
 used, copied, transmitted, or stored only in accord with that
 written license.
  
 The following legend is applicable only to US Government
 contracts under FAR:
  
                    RESTRICTED RIGHTS LEGEND
  
 Use, reproduction and disclosure by the US Government is
 subject to restrictions as set forth in subparagraphs (a)
 and (c) of the Commercial Computer Software - Restricted
 Rights clause in FAR 52.227-19.
  
 Gaussian, Inc.
 340 Quinnipiac St., Bldg. 40, Wallingford CT 06492
  
  
 ---------------------------------------------------------------
 Warning -- This program may not be used in any manner that
 competes with the business of Gaussian, Inc. or will provide
 assistance to any competitor of Gaussian, Inc.  The licensee
 of this program is prohibited from giving any competitor of
 Gaussian, Inc. access to this program.  By using this program,
 the user acknowledges that Gaussian, Inc. is engaged in the
 business of creating and licensing software in the field of
 computational chemistry and represents and warrants to the
 licensee that it is not a competitor of Gaussian, Inc. and that
 it will not use this program in any manner prohibited above.
 ---------------------------------------------------------------
  

 Cite this work as:
 Gaussian 09, Revision D.01,
 M. J. Frisch, G. W. Trucks, H. B. Schlegel, G. E. Scuseria, 
 M. A. Robb, J. R. Cheeseman, G. Scalmani, V. Barone, B. Mennucci, 
 G. A. Petersson, H. Nakatsuji, M. Caricato, X. Li, H. P. Hratchian, 
 A. F. Izmaylov, J. Bloino, G. Zheng, J. L. Sonnenberg, M. Hada, 
 M. Ehara, K. Toyota, R. Fukuda, J. Hasegawa, M. Ishida, T. Nakajima, 
 Y. Honda, O. Kitao, H. Nakai, T. Vreven, J. A. Montgomery, Jr., 
 J. E. Peralta, F. Ogliaro, M. Bearpark, J. J. Heyd, E. Brothers, 
 K. N. Kudin, V. N. Staroverov, T. Keith, R. Kobayashi, J. Normand, 
 K. Raghavachari, A. Rendell, J. C. Burant, S. S. Iyengar, J. Tomasi, 
 M. Cossi, N. Rega, J. M. Millam, M. Klene, J. E. Knox, J. B. Cross, 
 V. Bakken, C. Adamo, J. Jaramillo, R. Gomperts, R. E. Stratmann, 
 O. Yazyev, A. J. Austin, R. Cammi, C. Pomelli, J. W. Ochterski, 
 R. L. Martin, K. Morokuma, V. G. Zakrzewski, G. A. Voth, 
 P. Salvador, J. J. Dannenberg, S. Dapprich, A. D. Daniels, 
 O. Farkas, J. B. Foresman, J. V. Ortiz, J. Cioslowski, 
 and D. J. Fox, Gaussian, Inc., Wallingford CT, 2013.
 
 ******************************************
 Gaussian 09:  EM64L-G09RevD.01 24-Apr-2013
                14-Sep-2018 
 ******************************************
 %chk=Acrolina_Din_27.chk
 %nprocshared=10
 Will use up to   10 processors via shared memory.
 -------------------------------------------
 #p td=(nstates=15)/6-31+g(d) lc-wpbe charge
 -------------------------------------------
 1/18=10,28=-2,38=1,125=101/1;
 2/12=2,17=6,18=5,40=1/2;
 3/5=1,6=6,7=11,11=9,16=1,25=1,30=1,74=-41/1,2,8,3;
 4//1;
 5/5=2,38=5/2;
 8/6=1,10=2,108=15/1;
 9/41=15,42=1,70=2/14;
 6/7=2,8=2,9=2,10=2/1;
 99/5=1,9=1/99;
 Leave Link    1 at Fri Sep 14 16:54:21 2018, MaxMem=           0 cpu:         2.3
 (Enter /usr/local/pacerepov1/gaussian/G09D01LINDA/g09/l101.exe)
 ------------------
 Acroleina in Water
 ------------------
 Symbolic Z-matrix:
 Charge =  0 Multiplicity = 1
 C                     0.48515   0.48044  -1.43014 
 H                     1.4614    0.18777  -1.05573 
 H                     0.42924   0.87885  -2.43706 
 C                    -0.60513   0.34656  -0.65843 
 H                    -1.59169   0.63289  -1.01241 
 C                    -0.50852  -0.19911   0.7128 
 H                    -1.45849  -0.27211   1.27244 
 O                     0.54488  -0.56132   1.23652 
 O                    -0.84471  -1.70159   3.20097 
 H                    -0.75082  -0.90595   2.60251 
 H                    -0.57922  -1.45142   4.13209 
 O                     2.06732   1.28297   1.72223 
 H                     2.13767   2.19328   1.31422 
 H                     1.11046   1.08695   1.93673 
 O                     1.43813   3.3941    0.56818 
 H                     2.0474    3.8116   -0.10598 
 H                     0.4945    3.44437   0.24088 
 O                    -0.56909   3.85856  -0.61224 
 H                    -0.17979   4.74643  -0.85752 
 H                    -1.50756   3.80061  -0.95276 
 O                     2.98621  -1.53862  -4.5213 
 H                     2.48621  -1.34282  -5.36495 
 H                     3.48657  -0.72207  -4.23331 
 O                     3.68139  -3.54254  -3.80032 
 H                     4.41396  -3.31008  -3.1605 
 H                     3.15262  -2.72115  -4.01427 
 O                    -3.44569   4.46208   1.56774 
 H                    -4.38728   4.15547   1.70734 
 H                    -2.82135   3.85643   2.06114 
 O                    -3.15965   3.86017  -0.86258 
 H                    -4.05413   3.50607  -1.13568 
 H                    -3.21158   4.21159   0.07222 
 O                     0.12927  -3.90104   2.99169 
 H                    -0.41904  -3.08041   2.83052 
 H                    -0.46841  -4.65068   3.27594 
 O                    -3.0289   -2.66855   3.49479 
 H                    -3.04846  -3.0472    4.42016 
 H                    -2.10589  -2.34496   3.28653 
 O                     4.25308   1.1965   -1.29149 
 H                     4.06415   2.08952  -1.70004 
 H                     4.38074   0.51888  -2.01581 
 O                     4.27806   1.13965   0.99072 
 H                     4.13164   1.09949   0.0023 
 H                     3.3947    1.19091   1.45667 
 O                     4.70729  -0.65434  -2.90862 
 H                     5.36902  -0.3753   -3.60452 
 H                     4.97173  -1.54334  -2.53472 
 O                     1.57199  -5.35834   1.8049 
 H                     1.00189  -4.61833   2.16188 
 H                     1.81059  -5.98341   2.54813 
 
 NAtoms=     50 NQM=       50 NQMF=       0 NMMI=      0 NMMIF=      0
                NMic=       0 NMicF=      0.
                    Isotopes and Nuclear Properties:
 (Nuclear quadrupole moments (NQMom) in fm**2, nuclear magnetic moments (NMagM)
  in nuclear magnetons)

  Atom         1           2           3           4           5           6           7           8           9          10
 IAtWgt=          12           1           1          12           1          12           1          16          16           1
 AtmWgt=  12.0000000   1.0078250   1.0078250  12.0000000   1.0078250  12.0000000   1.0078250  15.9949146  15.9949146   1.0078250
 NucSpn=           0           1           1           0           1           0           1           0           0           1
 AtZEff=   0.0000000   0.0000000   0.0000000   0.0000000   0.0000000   0.0000000   0.0000000   0.0000000   0.0000000   0.0000000
 NQMom=    0.0000000   0.0000000   0.0000000   0.0000000   0.0000000   0.0000000   0.0000000   0.0000000   0.0000000   0.0000000
 NMagM=    0.0000000   2.7928460   2.7928460   0.0000000   2.7928460   0.0000000   2.7928460   0.0000000   0.0000000   2.7928460
 AtZNuc=   6.0000000   1.0000000   1.0000000   6.0000000   1.0000000   6.0000000   1.0000000   8.0000000   8.0000000   1.0000000

  Atom        11          12          13          14          15          16          17          18          19          20
 IAtWgt=           1          16           1           1          16           1           1          16           1           1
 AtmWgt=   1.0078250  15.9949146   1.0078250   1.0078250  15.9949146   1.0078250   1.0078250  15.9949146   1.0078250   1.0078250
 NucSpn=           1           0           1           1           0           1           1           0           1           1
 AtZEff=   0.0000000   0.0000000   0.0000000   0.0000000   0.0000000   0.0000000   0.0000000   0.0000000   0.0000000   0.0000000
 NQMom=    0.0000000   0.0000000   0.0000000   0.0000000   0.0000000   0.0000000   0.0000000   0.0000000   0.0000000   0.0000000
 NMagM=    2.7928460   0.0000000   2.7928460   2.7928460   0.0000000   2.7928460   2.7928460   0.0000000   2.7928460   2.7928460
 AtZNuc=   1.0000000   8.0000000   1.0000000   1.0000000   8.0000000   1.0000000   1.0000000   8.0000000   1.0000000   1.0000000

  Atom        21          22          23          24          25          26          27          28          29          30
 IAtWgt=          16           1           1          16           1           1          16           1           1          16
 AtmWgt=  15.9949146   1.0078250   1.0078250  15.9949146   1.0078250   1.0078250  15.9949146   1.0078250   1.0078250  15.9949146
 NucSpn=           0           1           1           0           1           1           0           1           1           0
 AtZEff=   0.0000000   0.0000000   0.0000000   0.0000000   0.0000000   0.0000000   0.0000000   0.0000000   0.0000000   0.0000000
 NQMom=    0.0000000   0.0000000   0.0000000   0.0000000   0.0000000   0.0000000   0.0000000   0.0000000   0.0000000   0.0000000
 NMagM=    0.0000000   2.7928460   2.7928460   0.0000000   2.7928460   2.7928460   0.0000000   2.7928460   2.7928460   0.0000000
 AtZNuc=   8.0000000   1.0000000   1.0000000   8.0000000   1.0000000   1.0000000   8.0000000   1.0000000   1.0000000   8.0000000

  Atom        31          32          33          34          35          36          37          38          39          40
 IAtWgt=           1           1          16           1           1          16           1           1          16           1
 AtmWgt=   1.0078250   1.0078250  15.9949146   1.0078250   1.0078250  15.9949146   1.0078250   1.0078250  15.9949146   1.0078250
 NucSpn=           1           1           0           1           1           0           1           1           0           1
 AtZEff=   0.0000000   0.0000000   0.0000000   0.0000000   0.0000000   0.0000000   0.0000000   0.0000000   0.0000000   0.0000000
 NQMom=    0.0000000   0.0000000   0.0000000   0.0000000   0.0000000   0.0000000   0.0000000   0.0000000   0.0000000   0.0000000
 NMagM=    2.7928460   2.7928460   0.0000000   2.7928460   2.7928460   0.0000000   2.7928460   2.7928460   0.0000000   2.7928460
 AtZNuc=   1.0000000   1.0000000   8.0000000   1.0000000   1.0000000   8.0000000   1.0000000   1.0000000   8.0000000   1.0000000

  Atom        41          42          43          44          45          46          47          48          49          50
 IAtWgt=           1          16           1           1          16           1           1          16           1           1
 AtmWgt=   1.0078250  15.9949146   1.0078250   1.0078250  15.9949146   1.0078250   1.0078250  15.9949146   1.0078250   1.0078250
 NucSpn=           1           0           1           1           0           1           1           0           1           1
 AtZEff=   0.0000000   0.0000000   0.0000000   0.0000000   0.0000000   0.0000000   0.0000000   0.0000000   0.0000000   0.0000000
 NQMom=    0.0000000   0.0000000   0.0000000   0.0000000   0.0000000   0.0000000   0.0000000   0.0000000   0.0000000   0.0000000
 NMagM=    2.7928460   0.0000000   2.7928460   2.7928460   0.0000000   2.7928460   2.7928460   0.0000000   2.7928460   2.7928460
 AtZNuc=   1.0000000   8.0000000   1.0000000   1.0000000   8.0000000   1.0000000   1.0000000   8.0000000   1.0000000   1.0000000
 Background charge distribution read from input stream:
 Point Charges:
 XYZ=    1.7386   -0.9761   -6.4053 Q=   -0.8200 A=    0.0000 R=    0.0000 C=    0.0000
 XYZ=    2.0772   -0.3685   -7.1238 Q=    0.4100 A=    0.0000 R=    0.0000 C=    0.0000
 XYZ=    0.8804   -0.6151   -6.0406 Q=    0.4100 A=    0.0000 R=    0.0000 C=    0.0000
 XYZ=   -0.0117   -1.3283    5.5201 Q=   -0.8200 A=    0.0000 R=    0.0000 C=    0.0000
 XYZ=    0.4817   -0.6496    6.0642 Q=    0.4100 A=    0.0000 R=    0.0000 C=    0.0000
 XYZ=    0.6352   -1.8269    4.9431 Q=    0.4100 A=    0.0000 R=    0.0000 C=    0.0000
 XYZ=    1.4803   -2.5142    4.3206 Q=   -0.8200 A=    0.0000 R=    0.0000 C=    0.0000
 XYZ=    2.3989   -2.3168    3.9783 Q=    0.4100 A=    0.0000 R=    0.0000 C=    0.0000
 XYZ=    1.0049   -3.1110    3.6742 Q=    0.4100 A=    0.0000 R=    0.0000 C=    0.0000
 XYZ=   -2.4530    5.4839   -2.3445 Q=   -0.8200 A=    0.0000 R=    0.0000 C=    0.0000
 XYZ=   -2.8688    4.7207   -1.8498 Q=    0.4100 A=    0.0000 R=    0.0000 C=    0.0000
 XYZ=   -2.3887    6.2777   -1.7397 Q=    0.4100 A=    0.0000 R=    0.0000 C=    0.0000
 XYZ=    2.9659    4.8354    1.8911 Q=   -0.8200 A=    0.0000 R=    0.0000 C=    0.0000
 XYZ=    2.2812    4.2200    1.5005 Q=    0.4100 A=    0.0000 R=    0.0000 C=    0.0000
 XYZ=    3.2029    5.5387    1.2209 Q=    0.4100 A=    0.0000 R=    0.0000 C=    0.0000
 XYZ=   -2.6572    3.2881   -4.6214 Q=   -0.8200 A=    0.0000 R=    0.0000 C=    0.0000
 XYZ=   -2.0635    3.9272   -4.1324 Q=    0.4100 A=    0.0000 R=    0.0000 C=    0.0000
 XYZ=   -3.5849    3.3462   -4.2525 Q=    0.4100 A=    0.0000 R=    0.0000 C=    0.0000
 XYZ=    3.1039   -5.8341   -3.1393 Q=   -0.8200 A=    0.0000 R=    0.0000 C=    0.0000
 XYZ=    3.0687   -4.8645   -3.3814 Q=    0.4100 A=    0.0000 R=    0.0000 C=    0.0000
 XYZ=    2.8387   -6.3851   -3.9306 Q=    0.4100 A=    0.0000 R=    0.0000 C=    0.0000
 XYZ=    2.2555    3.7563   -5.4588 Q=   -0.8200 A=    0.0000 R=    0.0000 C=    0.0000
 XYZ=    3.2295    3.5840   -5.3114 Q=    0.4100 A=    0.0000 R=    0.0000 C=    0.0000
 XYZ=    1.7407    3.4724   -4.6498 Q=    0.4100 A=    0.0000 R=    0.0000 C=    0.0000
 XYZ=    3.5870   -5.6492    0.6339 Q=   -0.8200 A=    0.0000 R=    0.0000 C=    0.0000
 XYZ=    2.7385   -5.4157    1.1088 Q=    0.4100 A=    0.0000 R=    0.0000 C=    0.0000
 XYZ=    3.3883   -6.2897   -0.1080 Q=    0.4100 A=    0.0000 R=    0.0000 C=    0.0000
 XYZ=    5.2551   -2.8265   -1.9048 Q=   -0.8200 A=    0.0000 R=    0.0000 C=    0.0000
 XYZ=    6.1011   -2.3128   -1.7616 Q=    0.4100 A=    0.0000 R=    0.0000 C=    0.0000
 XYZ=    5.0554   -3.3731   -1.0915 Q=    0.4100 A=    0.0000 R=    0.0000 C=    0.0000
 XYZ=   -3.4296    1.1324   -5.5823 Q=   -0.8200 A=    0.0000 R=    0.0000 C=    0.0000
 XYZ=   -2.9600    1.9179   -5.1791 Q=    0.4100 A=    0.0000 R=    0.0000 C=    0.0000
 XYZ=   -3.5555    1.2864   -6.5623 Q=    0.4100 A=    0.0000 R=    0.0000 C=    0.0000
 XYZ=    3.6374   -2.1188    3.7312 Q=   -0.8200 A=    0.0000 R=    0.0000 C=    0.0000
 XYZ=    4.0114   -1.3356    4.2280 Q=    0.4100 A=    0.0000 R=    0.0000 C=    0.0000
 XYZ=    4.2339   -2.3397    2.9595 Q=    0.4100 A=    0.0000 R=    0.0000 C=    0.0000
 XYZ=    3.4827   -4.4277   -5.8711 Q=   -0.8200 A=    0.0000 R=    0.0000 C=    0.0000
 XYZ=    3.5896   -4.2023   -4.9027 Q=    0.4100 A=    0.0000 R=    0.0000 C=    0.0000
 XYZ=    4.3823   -4.5892   -6.2770 Q=    0.4100 A=    0.0000 R=    0.0000 C=    0.0000
 XYZ=   -2.4203    6.7970    1.6569 Q=   -0.8200 A=    0.0000 R=    0.0000 C=    0.0000
 XYZ=   -2.8733    7.4548    2.2587 Q=    0.4100 A=    0.0000 R=    0.0000 C=    0.0000
 XYZ=   -2.7863    5.8822    1.8274 Q=    0.4100 A=    0.0000 R=    0.0000 C=    0.0000
 XYZ=   -5.2352    3.0154   -1.5626 Q=   -0.8200 A=    0.0000 R=    0.0000 C=    0.0000
 XYZ=   -5.7446    3.7732   -1.1548 Q=    0.4100 A=    0.0000 R=    0.0000 C=    0.0000
 XYZ=   -5.5468    2.1523   -1.1652 Q=    0.4100 A=    0.0000 R=    0.0000 C=    0.0000
 XYZ=    0.8320    5.9748   -1.2239 Q=   -0.8200 A=    0.0000 R=    0.0000 C=    0.0000
 XYZ=    1.6304    5.3850   -1.3449 Q=    0.4100 A=    0.0000 R=    0.0000 C=    0.0000
 XYZ=    0.3810    6.1102   -2.1062 Q=    0.4100 A=    0.0000 R=    0.0000 C=    0.0000
 XYZ=    5.2986   -4.2679    0.1013 Q=   -0.8200 A=    0.0000 R=    0.0000 C=    0.0000
 XYZ=    4.4863   -4.8130    0.3086 Q=    0.4100 A=    0.0000 R=    0.0000 C=    0.0000
 XYZ=    6.0436   -4.8733   -0.1791 Q=    0.4100 A=    0.0000 R=    0.0000 C=    0.0000
 XYZ=    2.9775    4.5119   -1.0391 Q=   -0.8200 A=    0.0000 R=    0.0000 C=    0.0000
 XYZ=    3.4547    5.2709   -0.5959 Q=    0.4100 A=    0.0000 R=    0.0000 C=    0.0000
 XYZ=    3.6100    4.0287   -1.6445 Q=    0.4100 A=    0.0000 R=    0.0000 C=    0.0000
 XYZ=   -0.2397    5.7746   -3.2067 Q=   -0.8200 A=    0.0000 R=    0.0000 C=    0.0000
 XYZ=   -1.1636    5.5311   -2.9114 Q=    0.4100 A=    0.0000 R=    0.0000 C=    0.0000
 XYZ=   -0.0776    5.4142   -4.1253 Q=    0.4100 A=    0.0000 R=    0.0000 C=    0.0000
 XYZ=    5.1824   -2.8676    1.9270 Q=   -0.8200 A=    0.0000 R=    0.0000 C=    0.0000
 XYZ=    5.2901   -3.4023    1.0889 Q=    0.4100 A=    0.0000 R=    0.0000 C=    0.0000
 XYZ=    5.4407   -3.4269    2.7147 Q=    0.4100 A=    0.0000 R=    0.0000 C=    0.0000
 XYZ=    6.0396   -0.6340    1.4941 Q=   -0.8200 A=    0.0000 R=    0.0000 C=    0.0000
 XYZ=    5.2915    0.0264    1.4276 Q=    0.4100 A=    0.0000 R=    0.0000 C=    0.0000
 XYZ=    5.6632   -1.5540    1.6034 Q=    0.4100 A=    0.0000 R=    0.0000 C=    0.0000
 XYZ=   -5.5613    3.6196    1.4459 Q=   -0.8200 A=    0.0000 R=    0.0000 C=    0.0000
 XYZ=   -6.1898    4.0400    0.7913 Q=    0.4100 A=    0.0000 R=    0.0000 C=    0.0000
 XYZ=   -5.8610    3.8284    2.3768 Q=    0.4100 A=    0.0000 R=    0.0000 C=    0.0000
 XYZ=    3.1694   -2.5920   -7.3458 Q=   -0.8200 A=    0.0000 R=    0.0000 C=    0.0000
 XYZ=    3.1643   -3.4675   -6.8625 Q=    0.4100 A=    0.0000 R=    0.0000 C=    0.0000
 XYZ=    2.5074   -1.9736   -6.9221 Q=    0.4100 A=    0.0000 R=    0.0000 C=    0.0000
 XYZ=   -5.2988   -2.7042    2.9628 Q=   -0.8200 A=    0.0000 R=    0.0000 C=    0.0000
 XYZ=   -4.3074   -2.7234    3.0922 Q=    0.4100 A=    0.0000 R=    0.0000 C=    0.0000
 XYZ=   -5.6699   -3.6235    3.0940 Q=    0.4100 A=    0.0000 R=    0.0000 C=    0.0000
 XYZ=   -0.1400    4.7213   -5.2631 Q=   -0.8200 A=    0.0000 R=    0.0000 C=    0.0000
 XYZ=   -0.7738    4.4616   -5.9917 Q=    0.4100 A=    0.0000 R=    0.0000 C=    0.0000
 XYZ=    0.7997    4.5648   -5.5673 Q=    0.4100 A=    0.0000 R=    0.0000 C=    0.0000
 XYZ=   -4.9535   -1.1749    4.6916 Q=   -0.8200 A=    0.0000 R=    0.0000 C=    0.0000
 XYZ=   -3.9841   -1.2073    4.9351 Q=    0.4100 A=    0.0000 R=    0.0000 C=    0.0000
 XYZ=   -5.1034   -1.6945    3.8504 Q=    0.4100 A=    0.0000 R=    0.0000 C=    0.0000
 XYZ=    4.4661    3.3030   -2.3584 Q=   -0.8200 A=    0.0000 R=    0.0000 C=    0.0000
 XYZ=    5.4183    3.3785   -2.0624 Q=    0.4100 A=    0.0000 R=    0.0000 C=    0.0000
 XYZ=    4.4179    3.3953   -3.3530 Q=    0.4100 A=    0.0000 R=    0.0000 C=    0.0000
 XYZ=    1.1244   -7.6153    0.4242 Q=   -0.8200 A=    0.0000 R=    0.0000 C=    0.0000
 XYZ=    1.0412   -6.7680    0.9488 Q=    0.4100 A=    0.0000 R=    0.0000 C=    0.0000
 XYZ=    1.8026   -7.4934   -0.3005 Q=    0.4100 A=    0.0000 R=    0.0000 C=    0.0000
 XYZ=   -4.9178    3.4361   -3.7593 Q=   -0.8200 A=    0.0000 R=    0.0000 C=    0.0000
 XYZ=   -5.0302    3.2911   -2.7763 Q=    0.4100 A=    0.0000 R=    0.0000 C=    0.0000
 XYZ=   -5.7727    3.2147   -4.2287 Q=    0.4100 A=    0.0000 R=    0.0000 C=    0.0000
 XYZ=    1.7020   -0.0766    6.6005 Q=   -0.8200 A=    0.0000 R=    0.0000 C=    0.0000
 XYZ=    2.2471   -0.7930    7.0360 Q=    0.4100 A=    0.0000 R=    0.0000 C=    0.0000
 XYZ=    2.3102    0.6202    6.2201 Q=    0.4100 A=    0.0000 R=    0.0000 C=    0.0000
 XYZ=    6.7853    0.3542   -0.4677 Q=   -0.8200 A=    0.0000 R=    0.0000 C=    0.0000
 XYZ=    5.9094    0.7712   -0.7107 Q=    0.4100 A=    0.0000 R=    0.0000 C=    0.0000
 XYZ=    6.6736   -0.1980    0.3585 Q=    0.4100 A=    0.0000 R=    0.0000 C=    0.0000
 XYZ=   -1.0852   -2.6672    7.0766 Q=   -0.8200 A=    0.0000 R=    0.0000 C=    0.0000
 XYZ=   -0.6179   -2.0169    6.4776 Q=    0.4100 A=    0.0000 R=    0.0000 C=    0.0000
 XYZ=   -1.9176   -2.9940    6.6289 Q=    0.4100 A=    0.0000 R=    0.0000 C=    0.0000
 XYZ=   -5.5509    0.5978   -4.7509 Q=   -0.8200 A=    0.0000 R=    0.0000 C=    0.0000
 XYZ=   -5.5568   -0.3782   -4.5327 Q=    0.4100 A=    0.0000 R=    0.0000 C=    0.0000
 XYZ=   -4.6223    0.8797   -4.9924 Q=    0.4100 A=    0.0000 R=    0.0000 C=    0.0000
 XYZ=   -1.8801    4.2603   -6.8286 Q=   -0.8200 A=    0.0000 R=    0.0000 C=    0.0000
 XYZ=   -2.1178    3.9112   -5.9221 Q=    0.4100 A=    0.0000 R=    0.0000 C=    0.0000
 XYZ=   -2.6258    4.8314   -7.1719 Q=    0.4100 A=    0.0000 R=    0.0000 C=    0.0000
 XYZ=   -0.0739    7.3169    2.4035 Q=   -0.8200 A=    0.0000 R=    0.0000 C=    0.0000
 XYZ=   -0.2439    8.2717    2.6474 Q=    0.4100 A=    0.0000 R=    0.0000 C=    0.0000
 XYZ=   -0.9179    6.9054    2.0595 Q=    0.4100 A=    0.0000 R=    0.0000 C=    0.0000
 XYZ=    1.4295    7.4473    0.5682 Q=   -0.8200 A=    0.0000 R=    0.0000 C=    0.0000
 XYZ=    0.7883    7.3507    1.3295 Q=    0.4100 A=    0.0000 R=    0.0000 C=    0.0000
 XYZ=    1.2704    6.7170   -0.0963 Q=    0.4100 A=    0.0000 R=    0.0000 C=    0.0000
 XYZ=    2.5482   -3.3115    6.3003 Q=   -0.8200 A=    0.0000 R=    0.0000 C=    0.0000
 XYZ=    2.0580   -3.0676    5.4635 Q=    0.4100 A=    0.0000 R=    0.0000 C=    0.0000
 XYZ=    2.7025   -2.4891    6.8479 Q=    0.4100 A=    0.0000 R=    0.0000 C=    0.0000
 XYZ=   -2.1753    7.3975   -0.6173 Q=   -0.8200 A=    0.0000 R=    0.0000 C=    0.0000
 XYZ=   -1.3777    7.9991   -0.6611 Q=    0.4100 A=    0.0000 R=    0.0000 C=    0.0000
 XYZ=   -2.3679    7.1683    0.3369 Q=    0.4100 A=    0.0000 R=    0.0000 C=    0.0000
 XYZ=   -7.3072    1.9840    1.5510 Q=   -0.8200 A=    0.0000 R=    0.0000 C=    0.0000
 XYZ=   -6.4722    2.5300    1.6207 Q=    0.4100 A=    0.0000 R=    0.0000 C=    0.0000
 XYZ=   -7.3573    1.5660    0.6439 Q=    0.4100 A=    0.0000 R=    0.0000 C=    0.0000
 XYZ=    3.0402   -7.1773   -1.0515 Q=   -0.8200 A=    0.0000 R=    0.0000 C=    0.0000
 XYZ=    3.8572   -7.7509   -1.1102 Q=    0.4100 A=    0.0000 R=    0.0000 C=    0.0000
 XYZ=    2.8657   -6.7540   -1.9405 Q=    0.4100 A=    0.0000 R=    0.0000 C=    0.0000
 XYZ=    4.7021   -0.2312    4.7672 Q=   -0.8200 A=    0.0000 R=    0.0000 C=    0.0000
 XYZ=    4.9372   -0.7436    5.5932 Q=    0.4100 A=    0.0000 R=    0.0000 C=    0.0000
 XYZ=    4.2165    0.6054    5.0209 Q=    0.4100 A=    0.0000 R=    0.0000 C=    0.0000
 XYZ=    5.8634    2.5577    2.3923 Q=   -0.8200 A=    0.0000 R=    0.0000 C=    0.0000
 XYZ=    5.3647    3.2881    2.8590 Q=    0.4100 A=    0.0000 R=    0.0000 C=    0.0000
 XYZ=    5.2302    2.0323    1.8239 Q=    0.4100 A=    0.0000 R=    0.0000 C=    0.0000
 XYZ=    3.3966    1.5518    5.8379 Q=   -0.8200 A=    0.0000 R=    0.0000 C=    0.0000
 XYZ=    3.8345    1.4955    6.7352 Q=    0.4100 A=    0.0000 R=    0.0000 C=    0.0000
 XYZ=    3.3756    2.5050    5.5366 Q=    0.4100 A=    0.0000 R=    0.0000 C=    0.0000
 XYZ=    1.4064    2.7980   -7.5264 Q=   -0.8200 A=    0.0000 R=    0.0000 C=    0.0000
 XYZ=    1.8340    3.3310   -6.7963 Q=    0.4100 A=    0.0000 R=    0.0000 C=    0.0000
 XYZ=    1.9210    1.9520   -7.6667 Q=    0.4100 A=    0.0000 R=    0.0000 C=    0.0000
 XYZ=    6.3172   -0.6356   -4.6656 Q=   -0.8200 A=    0.0000 R=    0.0000 C=    0.0000
 XYZ=    6.8528    0.2047   -4.5801 Q=    0.4100 A=    0.0000 R=    0.0000 C=    0.0000
 XYZ=    6.9117   -1.4261   -4.5187 Q=    0.4100 A=    0.0000 R=    0.0000 C=    0.0000
 XYZ=    7.3050   -1.7235   -1.2066 Q=   -0.8200 A=    0.0000 R=    0.0000 C=    0.0000
 XYZ=    6.8792   -0.8511   -0.9665 Q=    0.4100 A=    0.0000 R=    0.0000 C=    0.0000
 XYZ=    7.8338   -2.0616   -0.4282 Q=    0.4100 A=    0.0000 R=    0.0000 C=    0.0000
 XYZ=   -4.3333    5.6865   -3.8355 Q=   -0.8200 A=    0.0000 R=    0.0000 C=    0.0000
 XYZ=   -3.4370    5.5700   -3.4075 Q=    0.4100 A=    0.0000 R=    0.0000 C=    0.0000
 XYZ=   -4.8562    4.8383   -3.7500 Q=    0.4100 A=    0.0000 R=    0.0000 C=    0.0000
 XYZ=    4.4220   -6.6300    2.7047 Q=   -0.8200 A=    0.0000 R=    0.0000 C=    0.0000
 XYZ=    4.2428   -6.1193    1.8637 Q=    0.4100 A=    0.0000 R=    0.0000 C=    0.0000
 XYZ=    3.5554   -6.9298    3.1036 Q=    0.4100 A=    0.0000 R=    0.0000 C=    0.0000
 XYZ=    4.8055   -3.6022    5.1825 Q=   -0.8200 A=    0.0000 R=    0.0000 C=    0.0000
 XYZ=    4.2240   -2.9482    4.6985 Q=    0.4100 A=    0.0000 R=    0.0000 C=    0.0000
 XYZ=    4.2583   -4.1011    5.8545 Q=    0.4100 A=    0.0000 R=    0.0000 C=    0.0000
 XYZ=   -0.8874   -5.8529    3.7688 Q=   -0.8200 A=    0.0000 R=    0.0000 C=    0.0000
 XYZ=   -1.2756   -6.7093    3.4284 Q=    0.4100 A=    0.0000 R=    0.0000 C=    0.0000
 XYZ=   -0.0931   -6.0520    4.3428 Q=    0.4100 A=    0.0000 R=    0.0000 C=    0.0000
 XYZ=    4.6254    4.2385    3.4634 Q=   -0.8200 A=    0.0000 R=    0.0000 C=    0.0000
 XYZ=    4.2366    4.1805    4.3829 Q=    0.4100 A=    0.0000 R=    0.0000 C=    0.0000
 XYZ=    3.8999    4.4470    2.8074 Q=    0.4100 A=    0.0000 R=    0.0000 C=    0.0000
 XYZ=    5.8230   -6.3085   -2.2515 Q=   -0.8200 A=    0.0000 R=    0.0000 C=    0.0000
 XYZ=    4.9300   -6.0208   -2.5977 Q=    0.4100 A=    0.0000 R=    0.0000 C=    0.0000
 XYZ=    6.3906   -6.6216   -3.0131 Q=    0.4100 A=    0.0000 R=    0.0000 C=    0.0000
 XYZ=    0.7102    6.3214    4.4454 Q=   -0.8200 A=    0.0000 R=    0.0000 C=    0.0000
 XYZ=    0.3645    6.7907    3.6329 Q=    0.4100 A=    0.0000 R=    0.0000 C=    0.0000
 XYZ=    1.6428    6.0029    4.2749 Q=    0.4100 A=    0.0000 R=    0.0000 C=    0.0000
 XYZ=    5.4585   -1.3672   -7.0269 Q=   -0.8200 A=    0.0000 R=    0.0000 C=    0.0000
 XYZ=    5.8335   -1.3232   -6.1009 Q=    0.4100 A=    0.0000 R=    0.0000 C=    0.0000
 XYZ=    4.6872   -2.0034   -7.0443 Q=    0.4100 A=    0.0000 R=    0.0000 C=    0.0000
 XYZ=   -2.9896   -3.4098    5.8853 Q=   -0.8200 A=    0.0000 R=    0.0000 C=    0.0000
 XYZ=   -3.6291   -3.2625    6.6399 Q=    0.4100 A=    0.0000 R=    0.0000 C=    0.0000
 XYZ=   -2.8413   -4.3909    5.7608 Q=    0.4100 A=    0.0000 R=    0.0000 C=    0.0000
 XYZ=    0.5020    1.0877    8.3525 Q=   -0.8200 A=    0.0000 R=    0.0000 C=    0.0000
 XYZ=    0.9445    0.5827    7.6115 Q=    0.4100 A=    0.0000 R=    0.0000 C=    0.0000
 XYZ=   -0.4482    0.7879    8.4392 Q=    0.4100 A=    0.0000 R=    0.0000 C=    0.0000
 XYZ=    1.2660    4.6282    6.0486 Q=   -0.8200 A=    0.0000 R=    0.0000 C=    0.0000
 XYZ=    0.7836    5.1605    5.3529 Q=    0.4100 A=    0.0000 R=    0.0000 C=    0.0000
 XYZ=    0.6043    4.2433    6.6921 Q=    0.4100 A=    0.0000 R=    0.0000 C=    0.0000
 XYZ=    2.4024    0.4854   -7.9460 Q=   -0.8200 A=    0.0000 R=    0.0000 C=    0.0000
 XYZ=    3.3999    0.4465   -7.8859 Q=    0.4100 A=    0.0000 R=    0.0000 C=    0.0000
 XYZ=    2.1152    0.2517   -8.8750 Q=    0.4100 A=    0.0000 R=    0.0000 C=    0.0000
 XYZ=    4.7591    3.7554   -4.5147 Q=   -0.8200 A=    0.0000 R=    0.0000 C=    0.0000
 XYZ=    5.2733    4.6029   -4.6463 Q=    0.4100 A=    0.0000 R=    0.0000 C=    0.0000
 XYZ=    5.1734    3.0262   -5.0594 Q=    0.4100 A=    0.0000 R=    0.0000 C=    0.0000
 XYZ=   -7.2276    1.1214   -0.7603 Q=   -0.8200 A=    0.0000 R=    0.0000 C=    0.0000
 XYZ=   -7.3403    0.1280   -0.7383 Q=    0.4100 A=    0.0000 R=    0.0000 C=    0.0000
 XYZ=   -7.8604    1.5138   -1.4278 Q=    0.4100 A=    0.0000 R=    0.0000 C=    0.0000
 XYZ=   -6.6171    4.5438   -0.6004 Q=   -0.8200 A=    0.0000 R=    0.0000 C=    0.0000
 XYZ=   -6.3441    5.4897   -0.4249 Q=    0.4100 A=    0.0000 R=    0.0000 C=    0.0000
 XYZ=   -7.5043    4.5331   -1.0618 Q=    0.4100 A=    0.0000 R=    0.0000 C=    0.0000
 XYZ=    2.0912   -6.8307    3.4826 Q=   -0.8200 A=    0.0000 R=    0.0000 C=    0.0000
 XYZ=    1.5750   -6.5074    4.2757 Q=    0.4100 A=    0.0000 R=    0.0000 C=    0.0000
 XYZ=    1.6884   -7.6824    3.1473 Q=    0.4100 A=    0.0000 R=    0.0000 C=    0.0000
 XYZ=    3.4241    3.8789    5.4952 Q=   -0.8200 A=    0.0000 R=    0.0000 C=    0.0000
 XYZ=    4.0460    4.1901    6.2138 Q=    0.4100 A=    0.0000 R=    0.0000 C=    0.0000
 XYZ=    2.4988    4.2032    5.6918 Q=    0.4100 A=    0.0000 R=    0.0000 C=    0.0000
 XYZ=    2.7151   -6.2429   -7.2418 Q=   -0.8200 A=    0.0000 R=    0.0000 C=    0.0000
 XYZ=    3.3078   -6.1727   -8.0441 Q=    0.4100 A=    0.0000 R=    0.0000 C=    0.0000
 XYZ=    3.0492   -5.6298   -6.5259 Q=    0.4100 A=    0.0000 R=    0.0000 C=    0.0000
 XYZ=    0.2141    8.2405   -3.1112 Q=   -0.8200 A=    0.0000 R=    0.0000 C=    0.0000
 XYZ=    0.0869    8.5980   -4.0364 Q=    0.4100 A=    0.0000 R=    0.0000 C=    0.0000
 XYZ=   -0.1086    7.2948   -3.0720 Q=    0.4100 A=    0.0000 R=    0.0000 C=    0.0000
 XYZ=   -6.3259    3.9913    3.5472 Q=   -0.8200 A=    0.0000 R=    0.0000 C=    0.0000
 XYZ=   -7.0006    4.7241    3.4588 Q=    0.4100 A=    0.0000 R=    0.0000 C=    0.0000
 XYZ=   -6.4596    3.5185    4.4182 Q=    0.4100 A=    0.0000 R=    0.0000 C=    0.0000
 XYZ=    5.7588   -4.5463    3.2321 Q=   -0.8200 A=    0.0000 R=    0.0000 C=    0.0000
 XYZ=    5.5300   -4.1751    4.1321 Q=    0.4100 A=    0.0000 R=    0.0000 C=    0.0000
 XYZ=    5.3410   -5.4489    3.1279 Q=    0.4100 A=    0.0000 R=    0.0000 C=    0.0000
 XYZ=   -6.8804    0.2682    5.0548 Q=   -0.8200 A=    0.0000 R=    0.0000 C=    0.0000
 XYZ=   -6.0468   -0.2140    4.7853 Q=    0.4100 A=    0.0000 R=    0.0000 C=    0.0000
 XYZ=   -7.4449   -0.3328    5.6206 Q=    0.4100 A=    0.0000 R=    0.0000 C=    0.0000
 XYZ=    0.4905   -4.6156    6.9677 Q=   -0.8200 A=    0.0000 R=    0.0000 C=    0.0000
 XYZ=    1.3983   -4.2876    6.7063 Q=    0.4100 A=    0.0000 R=    0.0000 C=    0.0000
 XYZ=   -0.1729   -3.8739    6.8693 Q=    0.4100 A=    0.0000 R=    0.0000 C=    0.0000
 XYZ=   -3.9447    2.1714   -7.6690 Q=   -0.8200 A=    0.0000 R=    0.0000 C=    0.0000
 XYZ=   -4.8808    1.9078   -7.4359 Q=    0.4100 A=    0.0000 R=    0.0000 C=    0.0000
 XYZ=   -3.6929    2.9934   -7.1581 Q=    0.4100 A=    0.0000 R=    0.0000 C=    0.0000
 XYZ=   -2.7272   -5.6345    5.4397 Q=   -0.8200 A=    0.0000 R=    0.0000 C=    0.0000
 XYZ=   -1.9427   -5.5634    4.8236 Q=    0.4100 A=    0.0000 R=    0.0000 C=    0.0000
 XYZ=   -2.6379   -6.4586    5.9992 Q=    0.4100 A=    0.0000 R=    0.0000 C=    0.0000
 XYZ=    6.6412    1.1900    4.1943 Q=   -0.8200 A=    0.0000 R=    0.0000 C=    0.0000
 XYZ=    6.4867    1.7806    3.4022 Q=    0.4100 A=    0.0000 R=    0.0000 C=    0.0000
 XYZ=    5.8529    0.5875    4.3195 Q=    0.4100 A=    0.0000 R=    0.0000 C=    0.0000
 XYZ=    8.0878   -0.7112    2.5531 Q=   -0.8200 A=    0.0000 R=    0.0000 C=    0.0000
 XYZ=    8.0797   -0.7599    3.5519 Q=    0.4100 A=    0.0000 R=    0.0000 C=    0.0000
 XYZ=    7.1541   -0.5852    2.2180 Q=    0.4100 A=    0.0000 R=    0.0000 C=    0.0000
 XYZ=    3.7968    6.5134    0.4480 Q=   -0.8200 A=    0.0000 R=    0.0000 C=    0.0000
 XYZ=    3.2919    7.2881    0.0671 Q=    0.4100 A=    0.0000 R=    0.0000 C=    0.0000
 XYZ=    4.7167    6.8093    0.7054 Q=    0.4100 A=    0.0000 R=    0.0000 C=    0.0000
 XYZ=   -0.3844    3.7248    7.7302 Q=   -0.8200 A=    0.0000 R=    0.0000 C=    0.0000
 XYZ=   -0.1170    4.1387    8.6004 Q=    0.4100 A=    0.0000 R=    0.0000 C=    0.0000
 XYZ=    0.0000    2.8037    7.6673 Q=    0.4100 A=    0.0000 R=    0.0000 C=    0.0000
 XYZ=   -0.3987    3.5725   -8.7752 Q=   -0.8200 A=    0.0000 R=    0.0000 C=    0.0000
 XYZ=   -1.1593    3.7655   -8.1553 Q=    0.4100 A=    0.0000 R=    0.0000 C=    0.0000
 XYZ=    0.3317    3.1098   -8.2728 Q=    0.4100 A=    0.0000 R=    0.0000 C=    0.0000
 XYZ=   -0.0629    8.6731   -0.8395 Q=   -0.8200 A=    0.0000 R=    0.0000 C=    0.0000
 XYZ=    0.0978    8.5235   -1.8151 Q=    0.4100 A=    0.0000 R=    0.0000 C=    0.0000
 XYZ=    0.7037    8.3031   -0.3148 Q=    0.4100 A=    0.0000 R=    0.0000 C=    0.0000
 XYZ=    4.7813    0.7782   -7.6833 Q=   -0.8200 A=    0.0000 R=    0.0000 C=    0.0000
 XYZ=    5.2466    1.5282   -7.2129 Q=    0.4100 A=    0.0000 R=    0.0000 C=    0.0000
 XYZ=    5.1928   -0.0918   -7.4116 Q=    0.4100 A=    0.0000 R=    0.0000 C=    0.0000
 XYZ=    7.7051   -2.3273   -4.1429 Q=   -0.8200 A=    0.0000 R=    0.0000 C=    0.0000
 XYZ=    8.4544   -2.0573   -3.5381 Q=    0.4100 A=    0.0000 R=    0.0000 C=    0.0000
 XYZ=    7.4031   -3.2511   -3.9073 Q=    0.4100 A=    0.0000 R=    0.0000 C=    0.0000
 XYZ=   -5.9403    6.8176   -0.3366 Q=   -0.8200 A=    0.0000 R=    0.0000 C=    0.0000
 XYZ=   -5.0813    7.1080   -0.7583 Q=    0.4100 A=    0.0000 R=    0.0000 C=    0.0000
 XYZ=   -6.4855    7.6226   -0.1024 Q=    0.4100 A=    0.0000 R=    0.0000 C=    0.0000
 XYZ=   -7.6496   -2.6469    1.9896 Q=   -0.8200 A=    0.0000 R=    0.0000 C=    0.0000
 XYZ=   -6.7119   -2.3893    2.2226 Q=    0.4100 A=    0.0000 R=    0.0000 C=    0.0000
 XYZ=   -7.6764   -3.6138    1.7358 Q=    0.4100 A=    0.0000 R=    0.0000 C=    0.0000
 XYZ=   -6.9287    2.6508   -4.7147 Q=   -0.8200 A=    0.0000 R=    0.0000 C=    0.0000
 XYZ=   -7.2661    2.9271   -5.6146 Q=    0.4100 A=    0.0000 R=    0.0000 C=    0.0000
 XYZ=   -6.3794    1.8201   -4.8054 Q=    0.4100 A=    0.0000 R=    0.0000 C=    0.0000
 XYZ=   -5.4205    5.4268    5.3021 Q=   -0.8200 A=    0.0000 R=    0.0000 C=    0.0000
 XYZ=   -6.2588    5.7839    5.7142 Q=    0.4100 A=    0.0000 R=    0.0000 C=    0.0000
 XYZ=   -5.6549    4.8188    4.5435 Q=    0.4100 A=    0.0000 R=    0.0000 C=    0.0000
 XYZ=   -4.1997    8.5012   -1.3135 Q=   -0.8200 A=    0.0000 R=    0.0000 C=    0.0000
 XYZ=   -4.5143    9.2662   -0.7516 Q=    0.4100 A=    0.0000 R=    0.0000 C=    0.0000
 XYZ=   -3.3440    8.1430   -0.9400 Q=    0.4100 A=    0.0000 R=    0.0000 C=    0.0000
 XYZ=   -5.9586   -2.2671    6.5498 Q=   -0.8200 A=    0.0000 R=    0.0000 C=    0.0000
 XYZ=   -5.6281   -1.7058    5.7909 Q=    0.4100 A=    0.0000 R=    0.0000 C=    0.0000
 XYZ=   -5.2790   -2.2690    7.2834 Q=    0.4100 A=    0.0000 R=    0.0000 C=    0.0000
 XYZ=    0.1813   -5.9609   -7.6964 Q=   -0.8200 A=    0.0000 R=    0.0000 C=    0.0000
 XYZ=   -0.2210   -6.8764   -7.6968 Q=    0.4100 A=    0.0000 R=    0.0000 C=    0.0000
 XYZ=    1.1561   -6.0252   -7.4828 Q=    0.4100 A=    0.0000 R=    0.0000 C=    0.0000
 XYZ=    3.3817   -3.0829   -9.7206 Q=   -0.8200 A=    0.0000 R=    0.0000 C=    0.0000
 XYZ=    3.2365   -2.9059   -8.7471 Q=    0.4100 A=    0.0000 R=    0.0000 C=    0.0000
 XYZ=    4.3488   -3.2789   -9.8831 Q=    0.4100 A=    0.0000 R=    0.0000 C=    0.0000
 XYZ=    0.5721   -6.3508    5.2652 Q=   -0.8200 A=    0.0000 R=    0.0000 C=    0.0000
 XYZ=    0.2477   -7.2231    5.6311 Q=    0.4100 A=    0.0000 R=    0.0000 C=    0.0000
 XYZ=    0.5867   -5.6678    5.9956 Q=    0.4100 A=    0.0000 R=    0.0000 C=    0.0000
 XYZ=    7.2510   -5.5356   -0.6669 Q=   -0.8200 A=    0.0000 R=    0.0000 C=    0.0000
 XYZ=    8.2017   -5.7609   -0.8801 Q=    0.4100 A=    0.0000 R=    0.0000 C=    0.0000
 XYZ=    6.6535   -5.9030   -1.3796 Q=    0.4100 A=    0.0000 R=    0.0000 C=    0.0000
 XYZ=   -0.7021   -8.9049    1.3896 Q=   -0.8200 A=    0.0000 R=    0.0000 C=    0.0000
 XYZ=    0.1356   -8.7668    0.8611 Q=    0.4100 A=    0.0000 R=    0.0000 C=    0.0000
 XYZ=   -1.2753   -9.5859    0.9339 Q=    0.4100 A=    0.0000 R=    0.0000 C=    0.0000
 XYZ=    8.1997    2.2855   -0.8722 Q=   -0.8200 A=    0.0000 R=    0.0000 C=    0.0000
 XYZ=    7.7217    1.4211   -0.7159 Q=    0.4100 A=    0.0000 R=    0.0000 C=    0.0000
 XYZ=    8.7033    2.5417   -0.0471 Q=    0.4100 A=    0.0000 R=    0.0000 C=    0.0000
 XYZ=    9.2830   -1.3231   -2.4429 Q=   -0.8200 A=    0.0000 R=    0.0000 C=    0.0000
 XYZ=    8.3855   -1.2683   -2.0053 Q=    0.4100 A=    0.0000 R=    0.0000 C=    0.0000
 XYZ=    9.9850   -1.4710   -1.7463 Q=    0.4100 A=    0.0000 R=    0.0000 C=    0.0000
 XYZ=   -6.0728    1.1314   -7.1136 Q=   -0.8200 A=    0.0000 R=    0.0000 C=    0.0000
 XYZ=   -6.5625    0.5365   -7.7509 Q=    0.4100 A=    0.0000 R=    0.0000 C=    0.0000
 XYZ=   -6.0709    0.7157   -6.2041 Q=    0.4100 A=    0.0000 R=    0.0000 C=    0.0000
 XYZ=   -2.6858    3.4900    8.1057 Q=   -0.8200 A=    0.0000 R=    0.0000 C=    0.0000
 XYZ=   -1.7830    3.6307    7.6990 Q=    0.4100 A=    0.0000 R=    0.0000 C=    0.0000
 XYZ=   -2.7533    2.5541    8.4516 Q=    0.4100 A=    0.0000 R=    0.0000 C=    0.0000
 XYZ=   -8.4303    0.6106    3.2856 Q=   -0.8200 A=    0.0000 R=    0.0000 C=    0.0000
 XYZ=   -7.9773    1.2017    2.6181 Q=    0.4100 A=    0.0000 R=    0.0000 C=    0.0000
 XYZ=   -7.8146    0.4446    4.0559 Q=    0.4100 A=    0.0000 R=    0.0000 C=    0.0000
 XYZ=    5.9059    2.3694   -6.1767 Q=   -0.8200 A=    0.0000 R=    0.0000 C=    0.0000
 XYZ=    6.3330    3.0362   -6.7875 Q=    0.4100 A=    0.0000 R=    0.0000 C=    0.0000
 XYZ=    6.6130    1.7969   -5.7616 Q=    0.4100 A=    0.0000 R=    0.0000 C=    0.0000
 XYZ=    3.1549   -1.6296    7.8358 Q=   -0.8200 A=    0.0000 R=    0.0000 C=    0.0000
 XYZ=    3.3879   -1.8868    8.7737 Q=    0.4100 A=    0.0000 R=    0.0000 C=    0.0000
 XYZ=    3.9840   -1.6219    7.2767 Q=    0.4100 A=    0.0000 R=    0.0000 C=    0.0000
 XYZ=   -1.9389   -7.8061    2.9305 Q=   -0.8200 A=    0.0000 R=    0.0000 C=    0.0000
 XYZ=   -1.3726   -8.2089    2.2114 Q=    0.4100 A=    0.0000 R=    0.0000 C=    0.0000
 XYZ=   -2.8265   -7.5468    2.5497 Q=    0.4100 A=    0.0000 R=    0.0000 C=    0.0000
 XYZ=    7.6855   -5.3237    2.0475 Q=   -0.8200 A=    0.0000 R=    0.0000 C=    0.0000
 XYZ=    6.9294   -4.9263    2.5675 Q=    0.4100 A=    0.0000 R=    0.0000 C=    0.0000
 XYZ=    7.4208   -5.4095    1.0870 Q=    0.4100 A=    0.0000 R=    0.0000 C=    0.0000
 XYZ=    5.5061   -4.6490   -6.9987 Q=   -0.8200 A=    0.0000 R=    0.0000 C=    0.0000
 XYZ=    6.2996   -5.1647   -6.6754 Q=    0.4100 A=    0.0000 R=    0.0000 C=    0.0000
 XYZ=    5.1327   -5.0894   -7.8153 Q=    0.4100 A=    0.0000 R=    0.0000 C=    0.0000
 XYZ=   -2.3021   -1.9603    9.1165 Q=   -0.8200 A=    0.0000 R=    0.0000 C=    0.0000
 XYZ=   -1.7471   -2.3430    8.3779 Q=    0.4100 A=    0.0000 R=    0.0000 C=    0.0000
 XYZ=   -2.0869   -2.4299    9.9728 Q=    0.4100 A=    0.0000 R=    0.0000 C=    0.0000
 XYZ=    6.7129    3.8660   -1.5733 Q=   -0.8200 A=    0.0000 R=    0.0000 C=    0.0000
 XYZ=    7.3007    3.1543   -1.1886 Q=    0.4100 A=    0.0000 R=    0.0000 C=    0.0000
 XYZ=    6.9429    4.7473   -1.1606 Q=    0.4100 A=    0.0000 R=    0.0000 C=    0.0000
 XYZ=   -7.7760   -1.4982   -0.2671 Q=   -0.8200 A=    0.0000 R=    0.0000 C=    0.0000
 XYZ=   -7.9167   -2.2417   -0.9209 Q=    0.4100 A=    0.0000 R=    0.0000 C=    0.0000
 XYZ=   -7.6257   -1.8802    0.6448 Q=    0.4100 A=    0.0000 R=    0.0000 C=    0.0000
 XYZ=   -2.5709   -6.3439   -7.4507 Q=   -0.8200 A=    0.0000 R=    0.0000 C=    0.0000
 XYZ=   -1.6315   -6.0815   -7.2299 Q=    0.4100 A=    0.0000 R=    0.0000 C=    0.0000
 XYZ=   -3.1170   -6.3640   -6.6132 Q=    0.4100 A=    0.0000 R=    0.0000 C=    0.0000
 XYZ=   -0.5318    7.8621    5.8167 Q=   -0.8200 A=    0.0000 R=    0.0000 C=    0.0000
 XYZ=    0.0600    7.1167    5.5098 Q=    0.4100 A=    0.0000 R=    0.0000 C=    0.0000
 XYZ=   -1.3997    7.4864    6.1415 Q=    0.4100 A=    0.0000 R=    0.0000 C=    0.0000
 XYZ=    7.6504    1.3067   -4.6566 Q=   -0.8200 A=    0.0000 R=    0.0000 C=    0.0000
 XYZ=    7.7072    2.2681   -4.3873 Q=    0.4100 A=    0.0000 R=    0.0000 C=    0.0000
 XYZ=    8.4646    0.8223   -4.3363 Q=    0.4100 A=    0.0000 R=    0.0000 C=    0.0000
 XYZ=   -4.6338    7.9969   -3.5294 Q=   -0.8200 A=    0.0000 R=    0.0000 C=    0.0000
 XYZ=   -4.4400    8.2308   -2.5766 Q=    0.4100 A=    0.0000 R=    0.0000 C=    0.0000
 XYZ=   -4.4641    7.0221   -3.6744 Q=    0.4100 A=    0.0000 R=    0.0000 C=    0.0000
 XYZ=   -2.3804   -2.3684   -9.3995 Q=   -0.8200 A=    0.0000 R=    0.0000 C=    0.0000
 XYZ=   -2.4124   -3.2962   -9.7712 Q=    0.4100 A=    0.0000 R=    0.0000 C=    0.0000
 XYZ=   -2.8347   -2.3503   -8.5088 Q=    0.4100 A=    0.0000 R=    0.0000 C=    0.0000
 XYZ=    5.1244   -1.5981    6.6442 Q=   -0.8200 A=    0.0000 R=    0.0000 C=    0.0000
 XYZ=    5.7777   -1.4408    7.3848 Q=    0.4100 A=    0.0000 R=    0.0000 C=    0.0000
 XYZ=    5.2354   -2.5281    6.2939 Q=    0.4100 A=    0.0000 R=    0.0000 C=    0.0000
 XYZ=    4.9954   -8.3869   -1.3410 Q=   -0.8200 A=    0.0000 R=    0.0000 C=    0.0000
 XYZ=    5.6345   -9.1510   -1.2522 Q=    0.4100 A=    0.0000 R=    0.0000 C=    0.0000
 XYZ=    5.4800   -7.5864   -1.6935 Q=    0.4100 A=    0.0000 R=    0.0000 C=    0.0000
 XYZ=   -4.2120    7.4365    4.8693 Q=   -0.8200 A=    0.0000 R=    0.0000 C=    0.0000
 XYZ=   -4.7961    6.6251    4.8928 Q=    0.4100 A=    0.0000 R=    0.0000 C=    0.0000
 XYZ=   -4.7508    8.2422    5.1152 Q=    0.4100 A=    0.0000 R=    0.0000 C=    0.0000
 XYZ=   -4.5717   -6.3501    4.1686 Q=   -0.8200 A=    0.0000 R=    0.0000 C=    0.0000
 XYZ=   -3.8051   -6.0400    4.7310 Q=    0.4100 A=    0.0000 R=    0.0000 C=    0.0000
 XYZ=   -4.2220   -6.7721    3.3321 Q=    0.4100 A=    0.0000 R=    0.0000 C=    0.0000
 XYZ=   -9.0892    3.8813    2.0507 Q=   -0.8200 A=    0.0000 R=    0.0000 C=    0.0000
 XYZ=   -8.4802    3.1227    1.8188 Q=    0.4100 A=    0.0000 R=    0.0000 C=    0.0000
 XYZ=   -9.9419    3.5205    2.4286 Q=    0.4100 A=    0.0000 R=    0.0000 C=    0.0000
 XYZ=    1.5296    0.1362   -9.9750 Q=   -0.8200 A=    0.0000 R=    0.0000 C=    0.0000
 XYZ=    1.2486    1.0918  -10.0634 Q=    0.4100 A=    0.0000 R=    0.0000 C=    0.0000
 XYZ=    0.7298   -0.4291   -9.7728 Q=    0.4100 A=    0.0000 R=    0.0000 C=    0.0000
 XYZ=    6.5753   -3.0086   -8.1026 Q=   -0.8200 A=    0.0000 R=    0.0000 C=    0.0000
 XYZ=    6.3058   -2.1217   -7.7272 Q=    0.4100 A=    0.0000 R=    0.0000 C=    0.0000
 XYZ=    6.1436   -3.7394   -7.5737 Q=    0.4100 A=    0.0000 R=    0.0000 C=    0.0000
 XYZ=   -0.1796   -1.2330  -10.1011 Q=   -0.8200 A=    0.0000 R=    0.0000 C=    0.0000
 XYZ=    0.4450   -2.0005  -10.2461 Q=    0.4100 A=    0.0000 R=    0.0000 C=    0.0000
 XYZ=   -0.9896   -1.5511   -9.6084 Q=    0.4100 A=    0.0000 R=    0.0000 C=    0.0000
 XYZ=   -4.0647   -7.2998    1.9100 Q=   -0.8200 A=    0.0000 R=    0.0000 C=    0.0000
 XYZ=   -4.0144   -8.2761    1.6996 Q=    0.4100 A=    0.0000 R=    0.0000 C=    0.0000
 XYZ=   -4.8932   -6.9137    1.5042 Q=    0.4100 A=    0.0000 R=    0.0000 C=    0.0000
 XYZ=   -7.2531    2.6412    5.6548 Q=   -0.8200 A=    0.0000 R=    0.0000 C=    0.0000
 XYZ=   -7.1896    2.4932    6.6417 Q=    0.4100 A=    0.0000 R=    0.0000 C=    0.0000
 XYZ=   -7.2159    1.7604    5.1826 Q=    0.4100 A=    0.0000 R=    0.0000 C=    0.0000
 XYZ=   -3.2543    8.7591    2.9884 Q=   -0.8200 A=    0.0000 R=    0.0000 C=    0.0000
 XYZ=   -3.7590    8.5858    3.8343 Q=    0.4100 A=    0.0000 R=    0.0000 C=    0.0000
 XYZ=   -3.7638    9.4081    2.4234 Q=    0.4100 A=    0.0000 R=    0.0000 C=    0.0000
 XYZ=    6.7081   -7.6675    2.3347 Q=   -0.8200 A=    0.0000 R=    0.0000 C=    0.0000
 XYZ=    7.4359   -6.9894    2.2325 Q=    0.4100 A=    0.0000 R=    0.0000 C=    0.0000
 XYZ=    5.8232   -7.2034    2.3736 Q=    0.4100 A=    0.0000 R=    0.0000 C=    0.0000
 XYZ=   -6.1840   -4.7524    3.7170 Q=   -0.8200 A=    0.0000 R=    0.0000 C=    0.0000
 XYZ=   -6.5052   -4.2509    4.5203 Q=    0.4100 A=    0.0000 R=    0.0000 C=    0.0000
 XYZ=   -5.4462   -5.3724    3.9842 Q=    0.4100 A=    0.0000 R=    0.0000 C=    0.0000
 XYZ=   -2.6047    6.8410    6.3711 Q=   -0.8200 A=    0.0000 R=    0.0000 C=    0.0000
 XYZ=   -3.1480    7.2150    5.6195 Q=    0.4100 A=    0.0000 R=    0.0000 C=    0.0000
 XYZ=   -3.1582    6.1901    6.8907 Q=    0.4100 A=    0.0000 R=    0.0000 C=    0.0000
 XYZ=   -8.6256    4.1711   -1.5834 Q=   -0.8200 A=    0.0000 R=    0.0000 C=    0.0000
 XYZ=   -8.7023    4.9408   -2.2172 Q=    0.4100 A=    0.0000 R=    0.0000 C=    0.0000
 XYZ=   -8.3077    3.3623   -2.0782 Q=    0.4100 A=    0.0000 R=    0.0000 C=    0.0000
 XYZ=    7.6704    3.4509   -3.9044 Q=   -0.8200 A=    0.0000 R=    0.0000 C=    0.0000
 XYZ=    7.1005    3.7377   -3.1343 Q=    0.4100 A=    0.0000 R=    0.0000 C=    0.0000
 XYZ=    8.6346    3.5111   -3.6460 Q=    0.4100 A=    0.0000 R=    0.0000 C=    0.0000
 XYZ=    6.5627    5.6647    2.5886 Q=   -0.8200 A=    0.0000 R=    0.0000 C=    0.0000
 XYZ=    5.7027    5.2435    2.8769 Q=    0.4100 A=    0.0000 R=    0.0000 C=    0.0000
 XYZ=    7.2852    4.9734    2.5779 Q=    0.4100 A=    0.0000 R=    0.0000 C=    0.0000
 XYZ=   -8.3613    2.2585   -2.8087 Q=   -0.8200 A=    0.0000 R=    0.0000 C=    0.0000
 XYZ=   -7.8123    2.4043   -3.6317 Q=    0.4100 A=    0.0000 R=    0.0000 C=    0.0000
 XYZ=   -9.3124    2.0904   -3.0679 Q=    0.4100 A=    0.0000 R=    0.0000 C=    0.0000
 XYZ=   -1.0338    9.2074    3.8248 Q=   -0.8200 A=    0.0000 R=    0.0000 C=    0.0000
 XYZ=   -1.9305    8.9802    3.4448 Q=    0.4100 A=    0.0000 R=    0.0000 C=    0.0000
 XYZ=   -0.8489    8.6230    4.6149 Q=    0.4100 A=    0.0000 R=    0.0000 C=    0.0000
 XYZ=    8.8452   -2.2158    0.8911 Q=   -0.8200 A=    0.0000 R=    0.0000 C=    0.0000
 XYZ=    9.1958   -3.0447    1.3271 Q=    0.4100 A=    0.0000 R=    0.0000 C=    0.0000
 XYZ=    8.6815   -1.5168    1.5872 Q=    0.4100 A=    0.0000 R=    0.0000 C=    0.0000
 XYZ=   -4.3212    5.3357    7.4830 Q=   -0.8200 A=    0.0000 R=    0.0000 C=    0.0000
 XYZ=   -4.6563    5.2419    6.5454 Q=    0.4100 A=    0.0000 R=    0.0000 C=    0.0000
 XYZ=   -3.8502    4.4963    7.7541 Q=    0.4100 A=    0.0000 R=    0.0000 C=    0.0000
 XYZ=    1.6936   -8.2904   -6.8221 Q=   -0.8200 A=    0.0000 R=    0.0000 C=    0.0000
 XYZ=    2.1943   -7.4554   -7.0505 Q=    0.4100 A=    0.0000 R=    0.0000 C=    0.0000
 XYZ=    2.3292   -9.0616   -6.7889 Q=    0.4100 A=    0.0000 R=    0.0000 C=    0.0000
 XYZ=   -4.1303   -3.1207    7.8874 Q=   -0.8200 A=    0.0000 R=    0.0000 C=    0.0000
 XYZ=   -3.4744   -2.5193    8.3436 Q=    0.4100 A=    0.0000 R=    0.0000 C=    0.0000
 XYZ=   -4.1899   -3.9866    8.3841 Q=    0.4100 A=    0.0000 R=    0.0000 C=    0.0000
 XYZ=    7.8805    3.7115    2.6988 Q=   -0.8200 A=    0.0000 R=    0.0000 C=    0.0000
 XYZ=    8.1570    3.3688    3.5967 Q=    0.4100 A=    0.0000 R=    0.0000 C=    0.0000
 XYZ=    7.1172    3.1651    2.3540 Q=    0.4100 A=    0.0000 R=    0.0000 C=    0.0000
 XYZ=   -3.4561    1.9985  -10.0288 Q=   -0.8200 A=    0.0000 R=    0.0000 C=    0.0000
 XYZ=   -3.5470    2.0921   -9.0374 Q=    0.4100 A=    0.0000 R=    0.0000 C=    0.0000
 XYZ=   -3.4846    1.0300  -10.2762 Q=    0.4100 A=    0.0000 R=    0.0000 C=    0.0000
 XYZ=    0.9635    2.4317  -10.2709 Q=   -0.8200 A=    0.0000 R=    0.0000 C=    0.0000
 XYZ=    0.2913    2.8820   -9.6832 Q=    0.4100 A=    0.0000 R=    0.0000 C=    0.0000
 XYZ=    1.6708    3.0885  -10.5324 Q=    0.4100 A=    0.0000 R=    0.0000 C=    0.0000
 XYZ=    8.6717   -3.8504   -5.8448 Q=   -0.8200 A=    0.0000 R=    0.0000 C=    0.0000
 XYZ=    8.3269   -3.0575   -5.3424 Q=    0.4100 A=    0.0000 R=    0.0000 C=    0.0000
 XYZ=    9.1258   -3.5433   -6.6812 Q=    0.4100 A=    0.0000 R=    0.0000 C=    0.0000
 XYZ=    1.6310    1.9550   10.2242 Q=   -0.8200 A=    0.0000 R=    0.0000 C=    0.0000
 XYZ=    2.6115    2.1262   10.1266 Q=    0.4100 A=    0.0000 R=    0.0000 C=    0.0000
 XYZ=    1.2717    1.5793    9.3699 Q=    0.4100 A=    0.0000 R=    0.0000 C=    0.0000
 XYZ=   -3.5231    5.2614   -7.8940 Q=   -0.8200 A=    0.0000 R=    0.0000 C=    0.0000
 XYZ=   -3.2080    5.7344   -8.7169 Q=    0.4100 A=    0.0000 R=    0.0000 C=    0.0000
 XYZ=   -4.4964    5.0501   -7.9832 Q=    0.4100 A=    0.0000 R=    0.0000 C=    0.0000
 XYZ=   -2.4037    1.5770    9.2728 Q=   -0.8200 A=    0.0000 R=    0.0000 C=    0.0000
 XYZ=   -3.0537    0.8353    9.4387 Q=    0.4100 A=    0.0000 R=    0.0000 C=    0.0000
 XYZ=   -1.9888    1.8563   10.1388 Q=    0.4100 A=    0.0000 R=    0.0000 C=    0.0000
 XYZ=    0.2132   10.6141    0.5037 Q=   -0.8200 A=    0.0000 R=    0.0000 C=    0.0000
 XYZ=    0.9797   11.1375    0.1315 Q=    0.4100 A=    0.0000 R=    0.0000 C=    0.0000
 XYZ=   -0.0051    9.8582   -0.1135 Q=    0.4100 A=    0.0000 R=    0.0000 C=    0.0000
 XYZ=    6.9489    6.2448   -1.3543 Q=   -0.8200 A=    0.0000 R=    0.0000 C=    0.0000
 XYZ=    6.2337    6.1228   -2.0426 Q=    0.4100 A=    0.0000 R=    0.0000 C=    0.0000
 XYZ=    6.5675    6.7122   -0.5567 Q=    0.4100 A=    0.0000 R=    0.0000 C=    0.0000
 XYZ=   -0.1500   -5.4173  -10.0602 Q=   -0.8200 A=    0.0000 R=    0.0000 C=    0.0000
 XYZ=    0.3847   -4.6395  -10.3908 Q=    0.4100 A=    0.0000 R=    0.0000 C=    0.0000
 XYZ=    0.0590   -5.5795   -9.0958 Q=    0.4100 A=    0.0000 R=    0.0000 C=    0.0000
 XYZ=    4.5979    1.6222    8.0560 Q=   -0.8200 A=    0.0000 R=    0.0000 C=    0.0000
 XYZ=    5.4461    2.0269    7.7143 Q=    0.4100 A=    0.0000 R=    0.0000 C=    0.0000
 XYZ=    4.3264    2.0817    8.9017 Q=    0.4100 A=    0.0000 R=    0.0000 C=    0.0000
 XYZ=    7.2440   -6.7184   -4.0382 Q=   -0.8200 A=    0.0000 R=    0.0000 C=    0.0000
 XYZ=    7.1686   -6.2857   -4.9366 Q=    0.4100 A=    0.0000 R=    0.0000 C=    0.0000
 XYZ=    8.1329   -7.1696   -3.9591 Q=    0.4100 A=    0.0000 R=    0.0000 C=    0.0000
 XYZ=    1.1733   -3.3922  -10.4947 Q=   -0.8200 A=    0.0000 R=    0.0000 C=    0.0000
 XYZ=    2.1220   -3.3823  -10.1784 Q=    0.4100 A=    0.0000 R=    0.0000 C=    0.0000
 XYZ=    1.1165   -2.9530  -11.3913 Q=    0.4100 A=    0.0000 R=    0.0000 C=    0.0000
 XYZ=   -3.3379    8.5774   -5.6358 Q=   -0.8200 A=    0.0000 R=    0.0000 C=    0.0000
 XYZ=   -3.7690    8.4301   -4.7455 Q=    0.4100 A=    0.0000 R=    0.0000 C=    0.0000
 XYZ=   -3.0220    7.7021   -6.0020 Q=    0.4100 A=    0.0000 R=    0.0000 C=    0.0000
 XYZ=   -0.0147   -5.0181    9.2951 Q=   -0.8200 A=    0.0000 R=    0.0000 C=    0.0000
 XYZ=    0.3047   -4.9039    8.3544 Q=    0.4100 A=    0.0000 R=    0.0000 C=    0.0000
 XYZ=    0.7640   -4.9651    9.9203 Q=    0.4100 A=    0.0000 R=    0.0000 C=    0.0000
 XYZ=   -9.1337   -1.5209    3.2544 Q=   -0.8200 A=    0.0000 R=    0.0000 C=    0.0000
 XYZ=   -8.4383   -2.0201    2.7376 Q=    0.4100 A=    0.0000 R=    0.0000 C=    0.0000
 XYZ=   -8.8460   -0.5698    3.3675 Q=    0.4100 A=    0.0000 R=    0.0000 C=    0.0000
 XYZ=   -7.5427   -4.9746    1.7460 Q=   -0.8200 A=    0.0000 R=    0.0000 C=    0.0000
 XYZ=   -7.0409   -5.5682    1.1169 Q=    0.4100 A=    0.0000 R=    0.0000 C=    0.0000
 XYZ=   -7.0723   -4.9504    2.6282 Q=    0.4100 A=    0.0000 R=    0.0000 C=    0.0000
 XYZ=   -7.3106   -4.0036    5.7033 Q=   -0.8200 A=    0.0000 R=    0.0000 C=    0.0000
 XYZ=   -8.2043   -3.6245    5.4633 Q=    0.4100 A=    0.0000 R=    0.0000 C=    0.0000
 XYZ=   -6.7055   -3.2663    6.0036 Q=    0.4100 A=    0.0000 R=    0.0000 C=    0.0000
 XYZ=   -3.8960   -0.2389    9.6874 Q=   -0.8200 A=    0.0000 R=    0.0000 C=    0.0000
 XYZ=   -3.2381   -0.9405    9.4137 Q=    0.4100 A=    0.0000 R=    0.0000 C=    0.0000
 XYZ=   -4.5820   -0.6431   10.2924 Q=    0.4100 A=    0.0000 R=    0.0000 C=    0.0000
 XYZ=   -7.2536    3.1365   -7.0156 Q=   -0.8200 A=    0.0000 R=    0.0000 C=    0.0000
 XYZ=   -6.8665    3.9206   -7.5007 Q=    0.4100 A=    0.0000 R=    0.0000 C=    0.0000
 XYZ=   -6.6967    2.3255   -7.1950 Q=    0.4100 A=    0.0000 R=    0.0000 C=    0.0000
 XYZ=    6.7487    5.3461   -4.6258 Q=   -0.8200 A=    0.0000 R=    0.0000 C=    0.0000
 XYZ=    7.1239    4.4195   -4.6506 Q=    0.4100 A=    0.0000 R=    0.0000 C=    0.0000
 XYZ=    7.2141    5.9123   -5.3061 Q=    0.4100 A=    0.0000 R=    0.0000 C=    0.0000
 XYZ=   -8.2953    5.8862    2.9894 Q=   -0.8200 A=    0.0000 R=    0.0000 C=    0.0000
 XYZ=   -8.4874    5.7400    3.9598 Q=    0.4100 A=    0.0000 R=    0.0000 C=    0.0000
 XYZ=   -8.6059    5.0932    2.4650 Q=    0.4100 A=    0.0000 R=    0.0000 C=    0.0000
 XYZ=    9.7345    0.4860   -3.8506 Q=   -0.8200 A=    0.0000 R=    0.0000 C=    0.0000
 XYZ=    9.9528    1.2103   -3.1966 Q=    0.4100 A=    0.0000 R=    0.0000 C=    0.0000
 XYZ=    9.5396   -0.3615   -3.3567 Q=    0.4100 A=    0.0000 R=    0.0000 C=    0.0000
 XYZ=   -6.3000   -6.4710    0.3248 Q=   -0.8200 A=    0.0000 R=    0.0000 C=    0.0000
 XYZ=   -6.6020   -6.1821   -0.5838 Q=    0.4100 A=    0.0000 R=    0.0000 C=    0.0000
 XYZ=   -6.2944   -7.4699    0.3722 Q=    0.4100 A=    0.0000 R=    0.0000 C=    0.0000
 XYZ=    8.2703    2.4177    5.2049 Q=   -0.8200 A=    0.0000 R=    0.0000 C=    0.0000
 XYZ=    7.5667    1.7787    4.8940 Q=    0.4100 A=    0.0000 R=    0.0000 C=    0.0000
 XYZ=    9.0135    1.9093    5.6399 Q=    0.4100 A=    0.0000 R=    0.0000 C=    0.0000
 XYZ=   -0.4790   -8.2697   -7.6225 Q=   -0.8200 A=    0.0000 R=    0.0000 C=    0.0000
 XYZ=   -1.0610   -8.6985   -6.9315 Q=    0.4100 A=    0.0000 R=    0.0000 C=    0.0000
 XYZ=    0.4684   -8.2626   -7.3024 Q=    0.4100 A=    0.0000 R=    0.0000 C=    0.0000
 XYZ=   -6.9731   -5.3803   -4.5045 Q=   -0.8200 A=    0.0000 R=    0.0000 C=    0.0000
 XYZ=   -7.3546   -5.1125   -5.3893 Q=    0.4100 A=    0.0000 R=    0.0000 C=    0.0000
 XYZ=   -6.8589   -4.5687   -3.9315 Q=    0.4100 A=    0.0000 R=    0.0000 C=    0.0000
 XYZ=   -1.6384   -9.9783    4.0015 Q=   -0.8200 A=    0.0000 R=    0.0000 C=    0.0000
 XYZ=   -1.0244  -10.5809    3.4918 Q=    0.4100 A=    0.0000 R=    0.0000 C=    0.0000
 XYZ=   -1.6463   -9.0734    3.5759 Q=    0.4100 A=    0.0000 R=    0.0000 C=    0.0000
 XYZ=    7.5002   -5.8181   -6.3325 Q=   -0.8200 A=    0.0000 R=    0.0000 C=    0.0000
 XYZ=    7.8928   -4.9143   -6.1616 Q=    0.4100 A=    0.0000 R=    0.0000 C=    0.0000
 XYZ=    8.1829   -6.3998   -6.7747 Q=    0.4100 A=    0.0000 R=    0.0000 C=    0.0000
 XYZ=    6.0479    7.0859    0.8169 Q=   -0.8200 A=    0.0000 R=    0.0000 C=    0.0000
 XYZ=    6.3318    8.0367    0.9408 Q=    0.4100 A=    0.0000 R=    0.0000 C=    0.0000
 XYZ=    6.3354    6.5465    1.6084 Q=    0.4100 A=    0.0000 R=    0.0000 C=    0.0000
 XYZ=   -1.0016    5.2620  -10.4588 Q=   -0.8200 A=    0.0000 R=    0.0000 C=    0.0000
 XYZ=   -1.4570    4.5950  -11.0486 Q=    0.4100 A=    0.0000 R=    0.0000 C=    0.0000
 XYZ=   -0.4833    4.7819   -9.7510 Q=    0.4100 A=    0.0000 R=    0.0000 C=    0.0000
 XYZ=   10.1755    0.6391    1.6330 Q=   -0.8200 A=    0.0000 R=    0.0000 C=    0.0000
 XYZ=    9.3447    0.2127    1.9907 Q=    0.4100 A=    0.0000 R=    0.0000 C=    0.0000
 XYZ=    9.9598    1.5532    1.2897 Q=    0.4100 A=    0.0000 R=    0.0000 C=    0.0000
 XYZ=  -10.4752   -0.8597   -0.5437 Q=   -0.8200 A=    0.0000 R=    0.0000 C=    0.0000
 XYZ=  -10.7967    0.0543   -0.7914 Q=    0.4100 A=    0.0000 R=    0.0000 C=    0.0000
 XYZ=   -9.4759   -0.8624   -0.5051 Q=    0.4100 A=    0.0000 R=    0.0000 C=    0.0000
 XYZ=  -10.2155    3.2414   -0.1071 Q=   -0.8200 A=    0.0000 R=    0.0000 C=    0.0000
 XYZ=   -9.6047    3.5463   -0.8378 Q=    0.4100 A=    0.0000 R=    0.0000 C=    0.0000
 XYZ=   -9.7576    3.3469    0.7757 Q=    0.4100 A=    0.0000 R=    0.0000 C=    0.0000
 XYZ=   -8.1855   -1.2044    6.4120 Q=   -0.8200 A=    0.0000 R=    0.0000 C=    0.0000
 XYZ=   -8.7957   -1.9037    6.0396 Q=    0.4100 A=    0.0000 R=    0.0000 C=    0.0000
 XYZ=   -7.3393   -1.6340    6.7272 Q=    0.4100 A=    0.0000 R=    0.0000 C=    0.0000
 XYZ=    4.6096   -5.7552   -9.0036 Q=   -0.8200 A=    0.0000 R=    0.0000 C=    0.0000
 XYZ=    5.0071   -6.5508   -9.4609 Q=    0.4100 A=    0.0000 R=    0.0000 C=    0.0000
 XYZ=    4.7869   -4.9351   -9.5477 Q=    0.4100 A=    0.0000 R=    0.0000 C=    0.0000
 XYZ=    3.2298   -1.2940  -11.3326 Q=   -0.8200 A=    0.0000 R=    0.0000 C=    0.0000
 XYZ=    2.6978   -0.5860  -10.8683 Q=    0.4100 A=    0.0000 R=    0.0000 C=    0.0000
 XYZ=    3.3828   -2.0596  -10.7077 Q=    0.4100 A=    0.0000 R=    0.0000 C=    0.0000
 XYZ=    6.0451   -0.3150    8.7229 Q=   -0.8200 A=    0.0000 R=    0.0000 C=    0.0000
 XYZ=    5.3925    0.4009    8.4747 Q=    0.4100 A=    0.0000 R=    0.0000 C=    0.0000
 XYZ=    6.8225    0.0938    9.2010 Q=    0.4100 A=    0.0000 R=    0.0000 C=    0.0000
 XYZ=    5.2134    4.4731    7.1257 Q=   -0.8200 A=    0.0000 R=    0.0000 C=    0.0000
 XYZ=    5.7795    5.2612    6.8836 Q=    0.4100 A=    0.0000 R=    0.0000 C=    0.0000
 XYZ=    5.7754    3.6460    7.1237 Q=    0.4100 A=    0.0000 R=    0.0000 C=    0.0000
 XYZ=    0.0676   11.0256    2.8316 Q=   -0.8200 A=    0.0000 R=    0.0000 C=    0.0000
 XYZ=   -0.2859   10.2049    3.2806 Q=    0.4100 A=    0.0000 R=    0.0000 C=    0.0000
 XYZ=   -0.0075   10.9214    1.8399 Q=    0.4100 A=    0.0000 R=    0.0000 C=    0.0000
 XYZ=   10.5945   -2.1802   -0.7307 Q=   -0.8200 A=    0.0000 R=    0.0000 C=    0.0000
 XYZ=   11.0474   -3.0681   -0.8123 Q=    0.4100 A=    0.0000 R=    0.0000 C=    0.0000
 XYZ=    9.9531   -2.2025    0.0363 Q=    0.4100 A=    0.0000 R=    0.0000 C=    0.0000
 XYZ=   -0.7306   -8.2748    5.7434 Q=   -0.8200 A=    0.0000 R=    0.0000 C=    0.0000
 XYZ=   -1.5249   -7.8537    6.1813 Q=    0.4100 A=    0.0000 R=    0.0000 C=    0.0000
 XYZ=   -1.0215   -9.0842    5.2330 Q=    0.4100 A=    0.0000 R=    0.0000 C=    0.0000
 XYZ=    9.8981   -4.1368    2.0742 Q=   -0.8200 A=    0.0000 R=    0.0000 C=    0.0000
 XYZ=    9.0872   -4.6608    2.3348 Q=    0.4100 A=    0.0000 R=    0.0000 C=    0.0000
 XYZ=   10.5235   -4.7242    1.5604 Q=    0.4100 A=    0.0000 R=    0.0000 C=    0.0000
 XYZ=   10.3122    1.9220   -1.9972 Q=   -0.8200 A=    0.0000 R=    0.0000 C=    0.0000
 XYZ=    9.4725    2.2214   -1.5441 Q=    0.4100 A=    0.0000 R=    0.0000 C=    0.0000
 XYZ=   10.7197    1.1692   -1.4802 Q=    0.4100 A=    0.0000 R=    0.0000 C=    0.0000
 XYZ=   -2.4903   -4.4384  -10.4247 Q=   -0.8200 A=    0.0000 R=    0.0000 C=    0.0000
 XYZ=   -1.7971   -5.0049   -9.9790 Q=    0.4100 A=    0.0000 R=    0.0000 C=    0.0000
 XYZ=   -2.2630   -4.3335  -11.3929 Q=    0.4100 A=    0.0000 R=    0.0000 C=    0.0000
 XYZ=   -8.5243    4.9697    5.4209 Q=   -0.8200 A=    0.0000 R=    0.0000 C=    0.0000
 XYZ=   -8.2579    4.0192    5.5816 Q=    0.4100 A=    0.0000 R=    0.0000 C=    0.0000
 XYZ=   -7.9702    5.5726    5.9950 Q=    0.4100 A=    0.0000 R=    0.0000 C=    0.0000
 XYZ=   -1.2735    0.0292  -11.6612 Q=   -0.8200 A=    0.0000 R=    0.0000 C=    0.0000
 XYZ=   -0.7382   -0.5949  -11.0920 Q=    0.4100 A=    0.0000 R=    0.0000 C=    0.0000
 XYZ=   -2.2106    0.0749  -11.3152 Q=    0.4100 A=    0.0000 R=    0.0000 C=    0.0000
 XYZ=   -6.8753   -6.1931   -2.2861 Q=   -0.8200 A=    0.0000 R=    0.0000 C=    0.0000
 XYZ=   -7.8233   -6.3345   -2.0008 Q=    0.4100 A=    0.0000 R=    0.0000 C=    0.0000
 XYZ=   -6.8448   -6.0292   -3.2721 Q=    0.4100 A=    0.0000 R=    0.0000 C=    0.0000
 XYZ=    0.5750    4.1608    9.9384 Q=   -0.8200 A=    0.0000 R=    0.0000 C=    0.0000
 XYZ=   -0.1736    4.2474   10.5958 Q=    0.4100 A=    0.0000 R=    0.0000 C=    0.0000
 XYZ=    1.0470    3.2911   10.0834 Q=    0.4100 A=    0.0000 R=    0.0000 C=    0.0000
 XYZ=    7.3074   -9.0544    0.5677 Q=   -0.8200 A=    0.0000 R=    0.0000 C=    0.0000
 XYZ=    6.9394   -8.5049    1.3177 Q=    0.4100 A=    0.0000 R=    0.0000 C=    0.0000
 XYZ=    7.7806   -9.8527    0.9404 Q=    0.4100 A=    0.0000 R=    0.0000 C=    0.0000
 XYZ=   -3.2760    4.5147   10.2607 Q=   -0.8200 A=    0.0000 R=    0.0000 C=    0.0000
 XYZ=   -3.5430    5.4706   10.1387 Q=    0.4100 A=    0.0000 R=    0.0000 C=    0.0000
 XYZ=   -2.9566    4.1439    9.3886 Q=    0.4100 A=    0.0000 R=    0.0000 C=    0.0000
 XYZ=    5.5941   -3.7444  -10.1601 Q=   -0.8200 A=    0.0000 R=    0.0000 C=    0.0000
 XYZ=    6.0428   -3.6649  -11.0502 Q=    0.4100 A=    0.0000 R=    0.0000 C=    0.0000
 XYZ=    6.2589   -3.5661   -9.4346 Q=    0.4100 A=    0.0000 R=    0.0000 C=    0.0000
 XYZ=   -5.6609    4.6851   -8.3221 Q=   -0.8200 A=    0.0000 R=    0.0000 C=    0.0000
 XYZ=   -6.2051    5.4179   -8.7308 Q=    0.4100 A=    0.0000 R=    0.0000 C=    0.0000
 XYZ=   -5.5756    3.9307   -8.9730 Q=    0.4100 A=    0.0000 R=    0.0000 C=    0.0000
 XYZ=   -4.0153   -8.0564   -6.0797 Q=   -0.8200 A=    0.0000 R=    0.0000 C=    0.0000
 XYZ=   -4.3199   -8.3163   -6.9961 Q=    0.4100 A=    0.0000 R=    0.0000 C=    0.0000
 XYZ=   -4.8115   -7.9140   -5.4917 Q=    0.4100 A=    0.0000 R=    0.0000 C=    0.0000
 XYZ=   -7.7909    8.3068    2.9680 Q=   -0.8200 A=    0.0000 R=    0.0000 C=    0.0000
 XYZ=   -8.0251    7.3413    2.8544 Q=    0.4100 A=    0.0000 R=    0.0000 C=    0.0000
 XYZ=   -7.5127    8.4732    3.9140 Q=    0.4100 A=    0.0000 R=    0.0000 C=    0.0000
 XYZ=    6.6741    2.6160    7.2912 Q=   -0.8200 A=    0.0000 R=    0.0000 C=    0.0000
 XYZ=    7.2605    2.5919    6.4816 Q=    0.4100 A=    0.0000 R=    0.0000 C=    0.0000
 XYZ=    7.2416    2.6792    8.1122 Q=    0.4100 A=    0.0000 R=    0.0000 C=    0.0000
 XYZ=    9.4017    2.8951    1.0509 Q=   -0.8200 A=    0.0000 R=    0.0000 C=    0.0000
 XYZ=    8.7690    3.2626    1.7327 Q=    0.4100 A=    0.0000 R=    0.0000 C=    0.0000
 XYZ=   10.1455    3.5466    0.9012 Q=    0.4100 A=    0.0000 R=    0.0000 C=    0.0000
 XYZ=   -3.4761   -0.2621  -10.7624 Q=   -0.8200 A=    0.0000 R=    0.0000 C=    0.0000
 XYZ=   -3.0229   -1.1343  -10.5785 Q=    0.4100 A=    0.0000 R=    0.0000 C=    0.0000
 XYZ=   -4.4659   -0.3760  -10.6761 Q=    0.4100 A=    0.0000 R=    0.0000 C=    0.0000
 XYZ=   -5.6154   10.0758   -0.0692 Q=   -0.8200 A=    0.0000 R=    0.0000 C=    0.0000
 XYZ=   -6.0226   10.9446   -0.3513 Q=    0.4100 A=    0.0000 R=    0.0000 C=    0.0000
 XYZ=   -6.3396    9.4380    0.1932 Q=    0.4100 A=    0.0000 R=    0.0000 C=    0.0000
 XYZ=   -4.5852   10.3301    1.9794 Q=   -0.8200 A=    0.0000 R=    0.0000 C=    0.0000
 XYZ=   -5.2135   10.6999    2.6639 Q=    0.4100 A=    0.0000 R=    0.0000 C=    0.0000
 XYZ=   -5.0858   10.1427    1.1343 Q=    0.4100 A=    0.0000 R=    0.0000 C=    0.0000
 XYZ=   -7.2918    8.7173    0.5898 Q=   -0.8200 A=    0.0000 R=    0.0000 C=    0.0000
 XYZ=   -7.9660    9.3142    0.1548 Q=    0.4100 A=    0.0000 R=    0.0000 C=    0.0000
 XYZ=   -7.6327    8.4250    1.4833 Q=    0.4100 A=    0.0000 R=    0.0000 C=    0.0000
 XYZ=    8.8541   -3.3774   -8.4322 Q=   -0.8200 A=    0.0000 R=    0.0000 C=    0.0000
 XYZ=    7.9479   -2.9657   -8.3356 Q=    0.4100 A=    0.0000 R=    0.0000 C=    0.0000
 XYZ=    8.8424   -4.0363   -9.1844 Q=    0.4100 A=    0.0000 R=    0.0000 C=    0.0000
 XYZ=   -6.4091    4.4331    8.7522 Q=   -0.8200 A=    0.0000 R=    0.0000 C=    0.0000
 XYZ=   -6.9399    5.2452    8.9946 Q=    0.4100 A=    0.0000 R=    0.0000 C=    0.0000
 XYZ=   -5.6777    4.6893    8.1201 Q=    0.4100 A=    0.0000 R=    0.0000 C=    0.0000
 XYZ=   -4.0204   -9.7416    1.4343 Q=   -0.8200 A=    0.0000 R=    0.0000 C=    0.0000
 XYZ=   -4.8323   -9.5161    0.8958 Q=    0.4100 A=    0.0000 R=    0.0000 C=    0.0000
 XYZ=   -3.3033  -10.0857    0.8281 Q=    0.4100 A=    0.0000 R=    0.0000 C=    0.0000
 XYZ=  -10.8948    0.6664    3.2787 Q=   -0.8200 A=    0.0000 R=    0.0000 C=    0.0000
 XYZ=   -9.9453    0.7640    3.5769 Q=    0.4100 A=    0.0000 R=    0.0000 C=    0.0000
 XYZ=  -10.9328    0.0691    2.4776 Q=    0.4100 A=    0.0000 R=    0.0000 C=    0.0000
 XYZ=   -2.2198   -9.6506   -6.2827 Q=   -0.8200 A=    0.0000 R=    0.0000 C=    0.0000
 XYZ=   -2.9527   -9.0045   -6.0696 Q=    0.4100 A=    0.0000 R=    0.0000 C=    0.0000
 XYZ=   -2.5386  -10.3005   -6.9727 Q=    0.4100 A=    0.0000 R=    0.0000 C=    0.0000
 XYZ=   -6.0581   -7.6804    5.6162 Q=   -0.8200 A=    0.0000 R=    0.0000 C=    0.0000
 XYZ=   -5.5181   -7.0946    5.0117 Q=    0.4100 A=    0.0000 R=    0.0000 C=    0.0000
 XYZ=   -6.8266   -7.1587    5.9866 Q=    0.4100 A=    0.0000 R=    0.0000 C=    0.0000
 XYZ=   -5.6220    2.9943   -9.9546 Q=   -0.8200 A=    0.0000 R=    0.0000 C=    0.0000
 XYZ=   -6.0966    2.1513  -10.2081 Q=    0.4100 A=    0.0000 R=    0.0000 C=    0.0000
 XYZ=   -4.6348    2.8592  -10.0391 Q=    0.4100 A=    0.0000 R=    0.0000 C=    0.0000
 XYZ=   -1.4498   12.2004   -0.1152 Q=   -0.8200 A=    0.0000 R=    0.0000 C=    0.0000
 XYZ=   -1.2159   11.2294   -0.0656 Q=    0.4100 A=    0.0000 R=    0.0000 C=    0.0000
 XYZ=   -2.3452   12.3494    0.3044 Q=    0.4100 A=    0.0000 R=    0.0000 C=    0.0000
 XYZ=    4.2463    4.8568    9.2463 Q=   -0.8200 A=    0.0000 R=    0.0000 C=    0.0000
 XYZ=    4.9570    5.3474    9.7505 Q=    0.4100 A=    0.0000 R=    0.0000 C=    0.0000
 XYZ=    4.4637    4.8656    8.2702 Q=    0.4100 A=    0.0000 R=    0.0000 C=    0.0000
 XYZ=   -2.0006  -10.9704   -4.4077 Q=   -0.8200 A=    0.0000 R=    0.0000 C=    0.0000
 XYZ=   -1.4217  -10.4168   -3.8091 Q=    0.4100 A=    0.0000 R=    0.0000 C=    0.0000
 XYZ=   -2.1934  -10.4628   -5.2475 Q=    0.4100 A=    0.0000 R=    0.0000 C=    0.0000
 XYZ=   -5.9732   -7.6174   -5.0289 Q=   -0.8200 A=    0.0000 R=    0.0000 C=    0.0000
 XYZ=   -6.3593   -6.6978   -4.9557 Q=    0.4100 A=    0.0000 R=    0.0000 C=    0.0000
 XYZ=   -6.0752   -8.0922   -4.1547 Q=    0.4100 A=    0.0000 R=    0.0000 C=    0.0000
 XYZ=   -6.9204   -0.4159   -8.5377 Q=   -0.8200 A=    0.0000 R=    0.0000 C=    0.0000
 XYZ=   -7.5150   -1.1967   -8.3455 Q=    0.4100 A=    0.0000 R=    0.0000 C=    0.0000
 XYZ=   -6.2103   -0.6895   -9.1865 Q=    0.4100 A=    0.0000 R=    0.0000 C=    0.0000
 XYZ=   -2.0206   -6.2426    9.0002 Q=   -0.8200 A=    0.0000 R=    0.0000 C=    0.0000
 XYZ=   -1.2513   -5.6196    9.1416 Q=    0.4100 A=    0.0000 R=    0.0000 C=    0.0000
 XYZ=   -2.8750   -5.7736    9.2242 Q=    0.4100 A=    0.0000 R=    0.0000 C=    0.0000
 XYZ=   -2.6854   -7.4717    6.9380 Q=   -0.8200 A=    0.0000 R=    0.0000 C=    0.0000
 XYZ=   -2.3657   -7.0420    7.7825 Q=    0.4100 A=    0.0000 R=    0.0000 C=    0.0000
 XYZ=   -3.5551   -7.9350    7.1083 Q=    0.4100 A=    0.0000 R=    0.0000 C=    0.0000
 XYZ=   -1.4412   -3.6647   10.8712 Q=   -0.8200 A=    0.0000 R=    0.0000 C=    0.0000
 XYZ=   -1.0306   -4.1572   10.1038 Q=    0.4100 A=    0.0000 R=    0.0000 C=    0.0000
 XYZ=   -2.1983   -4.2009   11.2444 Q=    0.4100 A=    0.0000 R=    0.0000 C=    0.0000
 XYZ=    7.1994    3.9186   -7.3474 Q=   -0.8200 A=    0.0000 R=    0.0000 C=    0.0000
 XYZ=    7.9891    4.4224   -6.9973 Q=    0.4100 A=    0.0000 R=    0.0000 C=    0.0000
 XYZ=    6.9944    4.2246   -8.2772 Q=    0.4100 A=    0.0000 R=    0.0000 C=    0.0000
 XYZ=   -2.0367  -10.7984    0.1658 Q=   -0.8200 A=    0.0000 R=    0.0000 C=    0.0000
 XYZ=   -1.8386  -11.5653    0.7763 Q=    0.4100 A=    0.0000 R=    0.0000 C=    0.0000
 XYZ=   -2.8173  -11.0282   -0.4154 Q=    0.4100 A=    0.0000 R=    0.0000 C=    0.0000
 XYZ=   -3.1454   -7.6202   -9.4392 Q=   -0.8200 A=    0.0000 R=    0.0000 C=    0.0000
 XYZ=   -3.7433   -6.9371   -9.8587 Q=    0.4100 A=    0.0000 R=    0.0000 C=    0.0000
 XYZ=   -2.9366   -7.3484   -8.4997 Q=    0.4100 A=    0.0000 R=    0.0000 C=    0.0000
 XYZ=   -5.8897    9.7539   -4.5788 Q=   -0.8200 A=    0.0000 R=    0.0000 C=    0.0000
 XYZ=   -5.4645    8.9318   -4.2002 Q=    0.4100 A=    0.0000 R=    0.0000 C=    0.0000
 XYZ=   -5.2180   10.2557   -5.1238 Q=    0.4100 A=    0.0000 R=    0.0000 C=    0.0000
 XYZ=   -0.0936    9.7103    7.4303 Q=   -0.8200 A=    0.0000 R=    0.0000 C=    0.0000
 XYZ=   -0.2125    9.0091    6.7273 Q=    0.4100 A=    0.0000 R=    0.0000 C=    0.0000
 XYZ=    0.8781    9.8025    7.6480 Q=    0.4100 A=    0.0000 R=    0.0000 C=    0.0000
 XYZ=    4.7231   -1.8854    9.8301 Q=   -0.8200 A=    0.0000 R=    0.0000 C=    0.0000
 XYZ=    5.2845   -1.1526    9.4456 Q=    0.4100 A=    0.0000 R=    0.0000 C=    0.0000
 XYZ=    5.2323   -2.7456    9.8010 Q=    0.4100 A=    0.0000 R=    0.0000 C=    0.0000
 XYZ=   -5.8961   -8.7027    0.4633 Q=   -0.8200 A=    0.0000 R=    0.0000 C=    0.0000
 XYZ=   -6.6981   -8.9254    1.0176 Q=    0.4100 A=    0.0000 R=    0.0000 C=    0.0000
 XYZ=   -5.9050   -9.2525   -0.3719 Q=    0.4100 A=    0.0000 R=    0.0000 C=    0.0000
 XYZ=    9.4587   -6.4029   -0.9442 Q=   -0.8200 A=    0.0000 R=    0.0000 C=    0.0000
 XYZ=   10.1256   -6.2400   -1.6714 Q=    0.4100 A=    0.0000 R=    0.0000 C=    0.0000
 XYZ=    9.0669   -7.3169   -1.0499 Q=    0.4100 A=    0.0000 R=    0.0000 C=    0.0000
 XYZ=    4.0497    2.6465    9.9426 Q=   -0.8200 A=    0.0000 R=    0.0000 C=    0.0000
 XYZ=    4.6588    2.5357   10.7280 Q=    0.4100 A=    0.0000 R=    0.0000 C=    0.0000
 XYZ=    3.9366    3.6198    9.7432 Q=    0.4100 A=    0.0000 R=    0.0000 C=    0.0000
 XYZ=  -10.9799   -1.2115    1.7357 Q=   -0.8200 A=    0.0000 R=    0.0000 C=    0.0000
 XYZ=  -10.6640   -1.0564    0.7996 Q=    0.4100 A=    0.0000 R=    0.0000 C=    0.0000
 XYZ=  -10.1947   -1.4010    2.3253 Q=    0.4100 A=    0.0000 R=    0.0000 C=    0.0000
 XYZ=   -2.2283    3.6117  -11.6914 Q=   -0.8200 A=    0.0000 R=    0.0000 C=    0.0000
 XYZ=   -2.8572    3.1553  -11.0619 Q=    0.4100 A=    0.0000 R=    0.0000 C=    0.0000
 XYZ=   -1.5890    2.9414  -12.0682 Q=    0.4100 A=    0.0000 R=    0.0000 C=    0.0000
 XYZ=   -2.5900    6.7500   -9.8184 Q=   -0.8200 A=    0.0000 R=    0.0000 C=    0.0000
 XYZ=   -2.3002    7.7042   -9.7433 Q=    0.4100 A=    0.0000 R=    0.0000 C=    0.0000
 XYZ=   -1.7959    6.1751  -10.0158 Q=    0.4100 A=    0.0000 R=    0.0000 C=    0.0000
 XYZ=   -4.0535    6.6448    9.4679 Q=   -0.8200 A=    0.0000 R=    0.0000 C=    0.0000
 XYZ=   -4.2219    6.3471    8.5282 Q=    0.4100 A=    0.0000 R=    0.0000 C=    0.0000
 XYZ=   -4.8890    7.0437    9.8459 Q=    0.4100 A=    0.0000 R=    0.0000 C=    0.0000
 XYZ=   -0.5749    2.0351  -12.3734 Q=   -0.8200 A=    0.0000 R=    0.0000 C=    0.0000
 XYZ=    0.0164    2.3349  -11.6248 Q=    0.4100 A=    0.0000 R=    0.0000 C=    0.0000
 XYZ=   -0.9800    1.1500  -12.1443 Q=    0.4100 A=    0.0000 R=    0.0000 C=    0.0000
 XYZ=    7.6079    6.7558    4.5351 Q=   -0.8200 A=    0.0000 R=    0.0000 C=    0.0000
 XYZ=    8.3788    6.1809    4.8094 Q=    0.4100 A=    0.0000 R=    0.0000 C=    0.0000
 XYZ=    7.1485    6.3440    3.7481 Q=    0.4100 A=    0.0000 R=    0.0000 C=    0.0000
 XYZ=   -6.3829   -8.5403   -2.9623 Q=   -0.8200 A=    0.0000 R=    0.0000 C=    0.0000
 XYZ=   -6.6159   -7.7193   -2.4410 Q=    0.4100 A=    0.0000 R=    0.0000 C=    0.0000
 XYZ=   -7.2083   -9.0842   -3.1138 Q=    0.4100 A=    0.0000 R=    0.0000 C=    0.0000
 XYZ=   -9.4789   -2.7748    5.3083 Q=   -0.8200 A=    0.0000 R=    0.0000 C=    0.0000
 XYZ=   -9.4881   -2.3087    4.4236 Q=    0.4100 A=    0.0000 R=    0.0000 C=    0.0000
 XYZ=  -10.1226   -3.5397    5.2887 Q=    0.4100 A=    0.0000 R=    0.0000 C=    0.0000
 XYZ=   -7.3724    2.4161    8.0955 Q=   -0.8200 A=    0.0000 R=    0.0000 C=    0.0000
 XYZ=   -7.4188    1.7715    8.8586 Q=    0.4100 A=    0.0000 R=    0.0000 C=    0.0000
 XYZ=   -7.0764    3.3101    8.4319 Q=    0.4100 A=    0.0000 R=    0.0000 C=    0.0000
 XYZ=   10.9897    0.1124   -0.6726 Q=   -0.8200 A=    0.0000 R=    0.0000 C=    0.0000
 XYZ=   11.1000   -0.8493   -0.9237 Q=    0.4100 A=    0.0000 R=    0.0000 C=    0.0000
 XYZ=   10.7694    0.1796    0.3006 Q=    0.4100 A=    0.0000 R=    0.0000 C=    0.0000
 XYZ=   -7.2638    6.3922    6.6376 Q=   -0.8200 A=    0.0000 R=    0.0000 C=    0.0000
 XYZ=   -7.0999    7.3330    6.3405 Q=    0.4100 A=    0.0000 R=    0.0000 C=    0.0000
 XYZ=   -7.4067    6.3754    7.6272 Q=    0.4100 A=    0.0000 R=    0.0000 C=    0.0000
 XYZ=  -10.5089    1.6418   -3.3888 Q=   -0.8200 A=    0.0000 R=    0.0000 C=    0.0000
 XYZ=  -10.6306    1.6604   -2.3964 Q=    0.4100 A=    0.0000 R=    0.0000 C=    0.0000
 XYZ=  -11.1907    1.0345   -3.7969 Q=    0.4100 A=    0.0000 R=    0.0000 C=    0.0000
 XYZ=    0.5736    1.4292   12.2801 Q=   -0.8200 A=    0.0000 R=    0.0000 C=    0.0000
 XYZ=    0.8692    1.5852   11.3376 Q=    0.4100 A=    0.0000 R=    0.0000 C=    0.0000
 XYZ=    0.9363    0.5549   12.6028 Q=    0.4100 A=    0.0000 R=    0.0000 C=    0.0000
 XYZ=    7.9477   -9.3114    3.4579 Q=   -0.8200 A=    0.0000 R=    0.0000 C=    0.0000
 XYZ=    7.3057   -8.5818    3.2220 Q=    0.4100 A=    0.0000 R=    0.0000 C=    0.0000
 XYZ=    7.7125   -9.6851    4.3552 Q=    0.4100 A=    0.0000 R=    0.0000 C=    0.0000
 XYZ=   -8.8364   -6.9413    2.2653 Q=   -0.8200 A=    0.0000 R=    0.0000 C=    0.0000
 XYZ=   -9.5832   -6.7930    1.6169 Q=    0.4100 A=    0.0000 R=    0.0000 C=    0.0000
 XYZ=   -8.1814   -6.1887    2.1972 Q=    0.4100 A=    0.0000 R=    0.0000 C=    0.0000
 XYZ=   -7.7963   -6.1922    6.2503 Q=   -0.8200 A=    0.0000 R=    0.0000 C=    0.0000
 XYZ=   -8.5809   -6.4637    5.6929 Q=    0.4100 A=    0.0000 R=    0.0000 C=    0.0000
 XYZ=   -7.5583   -5.2417    6.0502 Q=    0.4100 A=    0.0000 R=    0.0000 C=    0.0000
 XYZ=    8.7151   -8.6518   -1.1614 Q=   -0.8200 A=    0.0000 R=    0.0000 C=    0.0000
 XYZ=    8.0090   -8.7698   -0.4632 Q=    0.4100 A=    0.0000 R=    0.0000 C=    0.0000
 XYZ=    9.5791   -9.0298   -0.8287 Q=    0.4100 A=    0.0000 R=    0.0000 C=    0.0000
 XYZ=   -4.6871   -5.3589  -10.3500 Q=   -0.8200 A=    0.0000 R=    0.0000 C=    0.0000
 XYZ=   -4.9083   -5.3224  -11.3245 Q=    0.4100 A=    0.0000 R=    0.0000 C=    0.0000
 XYZ=   -3.8638   -4.8188  -10.1746 Q=    0.4100 A=    0.0000 R=    0.0000 C=    0.0000
 XYZ=  -11.3122    1.2947   -1.1274 Q=   -0.8200 A=    0.0000 R=    0.0000 C=    0.0000
 XYZ=  -12.3070    1.2560   -1.2221 Q=    0.4100 A=    0.0000 R=    0.0000 C=    0.0000
 XYZ=  -11.0626    2.0700   -0.5471 Q=    0.4100 A=    0.0000 R=    0.0000 C=    0.0000
 XYZ=    9.1484    6.7798   -1.6649 Q=   -0.8200 A=    0.0000 R=    0.0000 C=    0.0000
 XYZ=    9.2176    7.0727   -2.6185 Q=    0.4100 A=    0.0000 R=    0.0000 C=    0.0000
 XYZ=    8.1932    6.5806   -1.4459 Q=    0.4100 A=    0.0000 R=    0.0000 C=    0.0000
 XYZ=   -5.1753    9.5057    5.3067 Q=   -0.8200 A=    0.0000 R=    0.0000 C=    0.0000
 XYZ=   -4.5959   10.0342    5.9273 Q=    0.4100 A=    0.0000 R=    0.0000 C=    0.0000
 XYZ=   -5.4409   10.0776    4.5305 Q=    0.4100 A=    0.0000 R=    0.0000 C=    0.0000
 XYZ=   -4.0213   -5.2089    9.3259 Q=   -0.8200 A=    0.0000 R=    0.0000 C=    0.0000
 XYZ=   -4.7422   -5.9018    9.3116 Q=    0.4100 A=    0.0000 R=    0.0000 C=    0.0000
 XYZ=   -3.8137   -4.9635   10.2729 Q=    0.4100 A=    0.0000 R=    0.0000 C=    0.0000
 XYZ=   -3.4807   12.3337    1.3138 Q=   -0.8200 A=    0.0000 R=    0.0000 C=    0.0000
 XYZ=   -3.8924   11.4244    1.3743 Q=    0.4100 A=    0.0000 R=    0.0000 C=    0.0000
 XYZ=   -4.2024   13.0221    1.2418 Q=    0.4100 A=    0.0000 R=    0.0000 C=    0.0000
 XYZ=   -0.8470   -7.2043  -11.2173 Q=   -0.8200 A=    0.0000 R=    0.0000 C=    0.0000
 XYZ=   -1.7460   -7.3000  -10.7899 Q=    0.4100 A=    0.0000 R=    0.0000 C=    0.0000
 XYZ=   -0.3521   -6.4493  -10.7871 Q=    0.4100 A=    0.0000 R=    0.0000 C=    0.0000
 XYZ=    1.3401   -2.0216  -12.5797 Q=   -0.8200 A=    0.0000 R=    0.0000 C=    0.0000
 XYZ=    2.2041   -1.6764  -12.2131 Q=    0.4100 A=    0.0000 R=    0.0000 C=    0.0000
 XYZ=    1.5186   -2.5567  -13.4055 Q=    0.4100 A=    0.0000 R=    0.0000 C=    0.0000
 XYZ=   -7.2211    8.5771    5.8152 Q=   -0.8200 A=    0.0000 R=    0.0000 C=    0.0000
 XYZ=   -7.5660    9.3451    6.3548 Q=    0.4100 A=    0.0000 R=    0.0000 C=    0.0000
 XYZ=   -6.3260    8.8117    5.4359 Q=    0.4100 A=    0.0000 R=    0.0000 C=    0.0000
 XYZ=   -7.6015   -4.4629   -6.6055 Q=   -0.8200 A=    0.0000 R=    0.0000 C=    0.0000
 XYZ=   -7.0329   -4.9062   -7.2985 Q=    0.4100 A=    0.0000 R=    0.0000 C=    0.0000
 XYZ=   -7.9212   -3.5807   -6.9512 Q=    0.4100 A=    0.0000 R=    0.0000 C=    0.0000
 XYZ=    2.4627    5.2267   10.7935 Q=   -0.8200 A=    0.0000 R=    0.0000 C=    0.0000
 XYZ=    1.6350    4.8666   10.3630 Q=    0.4100 A=    0.0000 R=    0.0000 C=    0.0000
 XYZ=    3.1821    5.3212   10.1054 Q=    0.4100 A=    0.0000 R=    0.0000 C=    0.0000
 XYZ=   -9.5505    3.6061   -7.1485 Q=   -0.8200 A=    0.0000 R=    0.0000 C=    0.0000
 XYZ=   -9.8712    4.5129   -7.4220 Q=    0.4100 A=    0.0000 R=    0.0000 C=    0.0000
 XYZ=   -8.5512    3.5829   -7.1787 Q=    0.4100 A=    0.0000 R=    0.0000 C=    0.0000
 XYZ=    0.2822  -10.0818   -9.0395 Q=   -0.8200 A=    0.0000 R=    0.0000 C=    0.0000
 XYZ=    0.3174   -9.6840   -9.9564 Q=    0.4100 A=    0.0000 R=    0.0000 C=    0.0000
 XYZ=   -0.0113   -9.3849   -8.3850 Q=    0.4100 A=    0.0000 R=    0.0000 C=    0.0000
 XYZ=   10.0751    4.1264   -3.1654 Q=   -0.8200 A=    0.0000 R=    0.0000 C=    0.0000
 XYZ=   10.5981    4.6178   -2.4690 Q=    0.4100 A=    0.0000 R=    0.0000 C=    0.0000
 XYZ=   10.2987    3.1525   -3.1247 Q=    0.4100 A=    0.0000 R=    0.0000 C=    0.0000
 XYZ=    8.8380    4.8565    5.3846 Q=   -0.8200 A=    0.0000 R=    0.0000 C=    0.0000
 XYZ=    8.5877    3.9117    5.1732 Q=    0.4100 A=    0.0000 R=    0.0000 C=    0.0000
 XYZ=    8.7215    5.0209    6.3641 Q=    0.4100 A=    0.0000 R=    0.0000 C=    0.0000
 XYZ=  -10.9594    3.0436    2.9994 Q=   -0.8200 A=    0.0000 R=    0.0000 C=    0.0000
 XYZ=  -11.8448    3.5009    2.9167 Q=    0.4100 A=    0.0000 R=    0.0000 C=    0.0000
 XYZ=  -11.0985    2.0545    3.0492 Q=    0.4100 A=    0.0000 R=    0.0000 C=    0.0000
 XYZ=   -1.8842   12.2537    3.1992 Q=   -0.8200 A=    0.0000 R=    0.0000 C=    0.0000
 XYZ=   -2.4751   12.1813    2.3956 Q=    0.4100 A=    0.0000 R=    0.0000 C=    0.0000
 XYZ=   -1.0369   11.7481    3.0364 Q=    0.4100 A=    0.0000 R=    0.0000 C=    0.0000
 XYZ=   11.2616   -3.1328    3.6974 Q=   -0.8200 A=    0.0000 R=    0.0000 C=    0.0000
 XYZ=   10.6779   -3.4287    2.9412 Q=    0.4100 A=    0.0000 R=    0.0000 C=    0.0000
 XYZ=   10.7336   -3.1353    4.5467 Q=    0.4100 A=    0.0000 R=    0.0000 C=    0.0000
 XYZ=   -6.8999    1.0605  -10.5091 Q=   -0.8200 A=    0.0000 R=    0.0000 C=    0.0000
 XYZ=   -7.0759    0.5926   -9.6430 Q=    0.4100 A=    0.0000 R=    0.0000 C=    0.0000
 XYZ=   -7.7538    1.1429  -11.0229 Q=    0.4100 A=    0.0000 R=    0.0000 C=    0.0000
 XYZ=   -6.0519   -5.6753   -8.3585 Q=   -0.8200 A=    0.0000 R=    0.0000 C=    0.0000
 XYZ=   -5.4565   -5.5754   -9.1557 Q=    0.4100 A=    0.0000 R=    0.0000 C=    0.0000
 XYZ=   -5.9867   -6.6099   -8.0088 Q=    0.4100 A=    0.0000 R=    0.0000 C=    0.0000
 XYZ=   -5.7498   -0.8548  -10.4942 Q=   -0.8200 A=    0.0000 R=    0.0000 C=    0.0000
 XYZ=   -6.2947   -0.1014  -10.8623 Q=    0.4100 A=    0.0000 R=    0.0000 C=    0.0000
 XYZ=   -6.1269   -1.7249  -10.8114 Q=    0.4100 A=    0.0000 R=    0.0000 C=    0.0000
 XYZ=   -3.6878  -10.9217    3.4556 Q=   -0.8200 A=    0.0000 R=    0.0000 C=    0.0000
 XYZ=   -2.8360  -10.5744    3.8479 Q=    0.4100 A=    0.0000 R=    0.0000 C=    0.0000
 XYZ=   -3.8359  -10.5050    2.5587 Q=    0.4100 A=    0.0000 R=    0.0000 C=    0.0000
[...]
    39  O    0.000022  -0.000020   0.000000   0.000000   0.000000   0.000001
    40  H    0.000000   0.000000   0.000000   0.000000   0.000000   0.000000
    41  H    0.000008  -0.000032   0.000000   0.000000   0.000000   0.000000
    42  O   -0.000001   0.000000   0.000000   0.000000   0.000000   0.000001
    43  H    0.000000   0.000000   0.000000   0.000000   0.000000   0.000000
    44  H    0.000000   0.000000   0.000000   0.000000   0.000000   0.000000
    45  O    0.005118  -0.001403   0.000000   0.000000   0.000000   0.000000
    46  H   -0.000236   0.000024   0.000000   0.000000   0.000000   0.000000
    47  H    0.001516   0.000364   0.000000   0.000000   0.000000   0.000000
    48  O    0.000000   0.000000   0.000000   0.000000   0.000000   0.000000
    49  H    0.000000   0.000000   0.000000   0.000000   0.000000   0.000000
    50  H    0.000000   0.000000   0.000000   0.000000   0.000000   0.000000
              31         32         33         34         35         36
     1  C   -0.000008  -0.000525   0.000296  -0.000244  -0.000001   0.000984
     2  H    0.000000   0.000000   0.000001   0.000000   0.000000   0.000000
     3  H    0.000000   0.000000   0.000000   0.000000   0.000000   0.000000
     4  C   -0.000091  -0.000569   0.001730   0.006631  -0.000051  -0.000692
     5  H   -0.000015  -0.000009   0.000000   0.000000   0.000000   0.000003
     6  C    0.000048   0.000879  -0.005345  -0.000028   0.000001  -0.000484
     7  H    0.000000  -0.000002   0.000009  -0.000073  -0.000001   0.000952
     8  O    0.000000   0.000000  -0.000847  -0.000324   0.000033  -0.000661
     9  O    0.000000   0.000000  -0.066356  -0.004049  -0.002104  -0.062226
    10  H    0.000000   0.000000   0.003829   0.003082   0.000018   0.002121
    11  H    0.000000   0.000000  -0.002838   0.002471   0.000045  -0.003211
    12  O    0.000000   0.000000   0.000018  -0.000064   0.000000  -0.000005
    13  H    0.000000   0.000000   0.000000   0.000000   0.000000   0.000000
    14  H    0.000000   0.000000   0.000003  -0.000002   0.000000   0.000003
    15  O    0.000006   0.000023   0.000001   0.000000   0.000000  -0.000001
    16  H    0.000000   0.000000   0.000000   0.000000   0.000000   0.000000
    17  H   -0.000001   0.000014   0.000000   0.000000   0.000000   0.000000
    18  O    0.001891   0.003458   0.000000   0.000000   0.000000   0.000000
    19  H   -0.000006  -0.000078   0.000000   0.000000   0.000000   0.000000
    20  H    0.000447  -0.002392   0.000000   0.000000   0.000000   0.000000
    21  O    0.000000   0.000000   0.000000   0.000000   0.000000   0.000000
    22  H    0.000000   0.000000   0.000000   0.000000   0.000000   0.000000
    23  H    0.000000   0.000000   0.000000   0.000000   0.000000   0.000000
    24  O    0.000000   0.000000   0.000000   0.000000   0.000000   0.000000
    25  H    0.000000   0.000000   0.000000   0.000000   0.000000   0.000000
    26  H    0.000000   0.000000   0.000000   0.000000   0.000000   0.000000
    27  O    0.000253   0.024831   0.000000   0.000000   0.000000   0.000001
    28  H    0.000000  -0.000498   0.000000   0.000000   0.000000   0.000000
    29  H    0.000079  -0.002645   0.000000   0.000000   0.000000   0.000000
    30  O    0.200007   0.175917   0.000000   0.000000   0.000000   0.000000
    31  H    0.157918  -0.002464   0.000000   0.000000   0.000000   0.000000
    32  H   -0.002464   0.204496   0.000000   0.000000   0.000000   0.000000
    33  O    0.000000   0.000000   9.013825   0.144912   0.202688  -0.007324
    34  H    0.000000   0.000000   0.144912   0.250675  -0.003399   0.006419
    35  H    0.000000   0.000000   0.202688  -0.003399   0.160600   0.001244
    36  O    0.000000   0.000000  -0.007324   0.006419   0.001244   8.876706
    37  H    0.000000   0.000000  -0.001356  -0.000029  -0.000025   0.217079
    38  H    0.000000   0.000000   0.007811   0.007292   0.000044   0.168330
    39  O    0.000000   0.000000   0.000000   0.000000   0.000000   0.000000
    40  H    0.000000   0.000000   0.000000   0.000000   0.000000   0.000000
    41  H    0.000000   0.000000   0.000000   0.000000   0.000000   0.000000
    42  O    0.000000   0.000000   0.000000   0.000000   0.000000   0.000000
    43  H    0.000000   0.000000   0.000000   0.000000   0.000000   0.000000
    44  H    0.000000   0.000000  -0.000001   0.000000   0.000000   0.000000
    45  O    0.000000   0.000000   0.000000   0.000000   0.000000   0.000000
    46  H    0.000000   0.000000   0.000000   0.000000   0.000000   0.000000
    47  H    0.000000   0.000000   0.000000   0.000000   0.000000   0.000000
    48  O    0.000000   0.000000  -0.073831   0.002487   0.000411   0.000139
    49  H    0.000000   0.000000   0.015720   0.001813   0.000739   0.000153
    50  H    0.000000   0.000000   0.002003   0.000177  -0.000268   0.000003
              37         38         39         40         41         42
     1  C   -0.000011  -0.000312  -0.015614  -0.001689  -0.001042  -0.001140
     2  H    0.000000   0.000000   0.002325  -0.000160  -0.000053  -0.000667
     3  H    0.000000   0.000000  -0.000094   0.000006   0.000001  -0.000010
     4  C   -0.000007   0.002270   0.012663   0.001261   0.001538  -0.005873
     5  H    0.000000   0.000000  -0.000007   0.000000   0.000000  -0.000001
     6  C    0.000310  -0.001240  -0.003370   0.000227  -0.000190   0.007548
     7  H    0.000011  -0.000962  -0.000002   0.000000   0.000000  -0.000008
     8  O    0.000023   0.001179  -0.000729   0.000012  -0.000003  -0.003357
     9  O    0.001558   0.022937  -0.000004   0.000000   0.000000   0.000008
    10  H    0.000036   0.002608   0.000001   0.000000   0.000000   0.000000
    11  H   -0.000210  -0.000500   0.000000   0.000000   0.000000   0.000000
    12  O    0.000000  -0.000025  -0.000590  -0.000215  -0.000018  -0.057254
    13  H    0.000000   0.000000  -0.000220   0.000001   0.000012   0.010440
    14  H    0.000000   0.000005   0.000201  -0.000002   0.000001   0.006362
    15  O    0.000000   0.000000   0.003861  -0.000064  -0.000019  -0.008200
    16  H    0.000000   0.000000  -0.000054  -0.000016   0.000001   0.000500
    17  H    0.000000   0.000000  -0.000097   0.000004   0.000000   0.000090
    18  O    0.000000   0.000000  -0.000081   0.000004   0.000000   0.000100
    19  H    0.000000   0.000000   0.000001   0.000000   0.000000  -0.000002
    20  H    0.000000   0.000000  -0.000001   0.000000   0.000000   0.000000
    21  O    0.000000   0.000000  -0.002722   0.000040  -0.000300  -0.000004
    22  H    0.000000   0.000000   0.000027   0.000000   0.000017   0.000000
    23  H    0.000000   0.000000  -0.001359   0.000036   0.000151  -0.000009
    24  O    0.000000   0.000000  -0.000079   0.000003   0.000036   0.000003
    25  H    0.000000   0.000000   0.000022   0.000000   0.000008  -0.000001
    26  H    0.000000   0.000000  -0.000020   0.000000  -0.000032   0.000000
    27  O    0.000000   0.000000   0.000000   0.000000   0.000000   0.000000
    28  H    0.000000   0.000000   0.000000   0.000000   0.000000   0.000000
    29  H    0.000000   0.000000   0.000000   0.000000   0.000000   0.000000
    30  O    0.000000   0.000000   0.000001   0.000000   0.000000   0.000001
    31  H    0.000000   0.000000   0.000000   0.000000   0.000000   0.000000
    32  H    0.000000   0.000000   0.000000   0.000000   0.000000   0.000000
    33  O   -0.001356   0.007811   0.000000   0.000000   0.000000   0.000000
    34  H   -0.000029   0.007292   0.000000   0.000000   0.000000   0.000000
    35  H   -0.000025   0.000044   0.000000   0.000000   0.000000   0.000000
    36  O    0.217079   0.168330   0.000000   0.000000   0.000000   0.000000
    37  H    0.211464  -0.009593   0.000000   0.000000   0.000000   0.000000
    38  H   -0.009593   0.209864   0.000000   0.000000   0.000000   0.000000
    39  O    0.000000   0.000000   9.100929   0.209557   0.141420  -0.104034
    40  H    0.000000   0.000000   0.209557   0.181561  -0.006210   0.000574
    41  H    0.000000   0.000000   0.141420  -0.006210   0.199775   0.001255
    42  O    0.000000   0.000000  -0.104034   0.000574   0.001255   9.092471
    43  H    0.000000   0.000000  -0.039888   0.001423   0.003315   0.184458
    44  H    0.000000   0.000000   0.002827  -0.000099  -0.000065   0.150832
    45  O    0.000000   0.000000  -0.059519   0.001036   0.042083  -0.001115
    46  H    0.000000   0.000000  -0.003089   0.000066  -0.003296  -0.000036
    47  H    0.000000   0.000000   0.000047   0.000012   0.000754   0.000128
    48  O    0.000000   0.000075   0.000000   0.000000   0.000000   0.000002
    49  H    0.000000   0.000025   0.000000   0.000000   0.000000   0.000000
    50  H    0.000000  -0.000001   0.000000   0.000000   0.000000   0.000000
              43         44         45         46         47         48
     1  C    0.001028   0.005956  -0.000691  -0.000080  -0.000110   0.000077
     2  H   -0.000048   0.000104  -0.000068   0.000001  -0.000001   0.000000
     3  H    0.000000  -0.000003  -0.000065   0.000000   0.000000   0.000000
     4  C   -0.001084  -0.005554   0.003300  -0.000055   0.000083  -0.000350
     5  H    0.000000   0.000000   0.000000   0.000000   0.000000   0.000000
     6  C    0.000055   0.002663  -0.000604   0.000008   0.000003   0.000312
     7  H    0.000000   0.000000   0.000000   0.000000   0.000000   0.000002
     8  O   -0.000103  -0.000510   0.000013   0.000000   0.000001  -0.000172
     9  O    0.000000  -0.000011   0.000000   0.000000   0.000000  -0.001123
    10  H    0.000000  -0.000001   0.000000   0.000000   0.000000   0.000056
    11  H    0.000000   0.000000   0.000000   0.000000   0.000000   0.000002
    12  O    0.001816   0.018756  -0.000018   0.000000  -0.000001  -0.000001
    13  H   -0.000407  -0.005279   0.000001   0.000000   0.000000   0.000000
    14  H   -0.000075   0.003274   0.000003   0.000000   0.000000  -0.000001
    15  O   -0.000022   0.002448   0.000037   0.000000   0.000000   0.000000
    16  H   -0.000063   0.000025  -0.000001   0.000000   0.000000   0.000000
    17  H    0.000008  -0.000007   0.000000   0.000000   0.000000   0.000000
    18  O    0.000006   0.000046  -0.000002   0.000000   0.000000   0.000000
    19  H    0.000000   0.000000   0.000000   0.000000   0.000000   0.000000
    20  H    0.000000   0.000000   0.000000   0.000000   0.000000   0.000000
    21  O   -0.000006   0.000000  -0.074947   0.000202   0.000275   0.000000
    22  H    0.000000   0.000000   0.002141   0.000031   0.000006   0.000000
    23  H   -0.000008   0.000000   0.017350  -0.002187   0.000860   0.000000
    24  O    0.000001   0.000000  -0.000814  -0.000937   0.002598   0.000000
    25  H    0.000000   0.000000   0.005118  -0.000236   0.001516   0.000000
    26  H    0.000000   0.000000  -0.001403   0.000024   0.000364   0.000000
    27  O    0.000000   0.000000   0.000000   0.000000   0.000000   0.000000
    28  H    0.000000   0.000000   0.000000   0.000000   0.000000   0.000000
    29  H    0.000000   0.000000   0.000000   0.000000   0.000000   0.000000
    30  O    0.000000   0.000000   0.000000   0.000000   0.000000   0.000000
    31  H    0.000000   0.000000   0.000000   0.000000   0.000000   0.000000
    32  H    0.000000   0.000000   0.000000   0.000000   0.000000   0.000000
    33  O    0.000000  -0.000001   0.000000   0.000000   0.000000  -0.073831
    34  H    0.000000   0.000000   0.000000   0.000000   0.000000   0.002487
    35  H    0.000000   0.000000   0.000000   0.000000   0.000000   0.000411
    36  O    0.000000   0.000000   0.000000   0.000000   0.000000   0.000139
    37  H    0.000000   0.000000   0.000000   0.000000   0.000000   0.000000
    38  H    0.000000   0.000000   0.000000   0.000000   0.000000   0.000075
    39  O   -0.039888   0.002827  -0.059519  -0.003089   0.000047   0.000000
    40  H    0.001423  -0.000099   0.001036   0.000066   0.000012   0.000000
    41  H    0.003315  -0.000065   0.042083  -0.003296   0.000754   0.000000
    42  O    0.184458   0.150832  -0.001115  -0.000036   0.000128   0.000002
    43  H    0.230148  -0.002518  -0.000316  -0.000013   0.000027   0.000000
    44  H   -0.002518   0.209457   0.000063   0.000000  -0.000001   0.000000
    45  O   -0.000316   0.000063   8.925699   0.203288   0.211426   0.000000
    46  H   -0.000013   0.000000   0.203288   0.171712  -0.008551   0.000000
    47  H    0.000027  -0.000001   0.211426  -0.008551   0.169697   0.000000
    48  O    0.000000   0.000000   0.000000   0.000000   0.000000   8.899298
    49  H    0.000000   0.000000   0.000000   0.000000   0.000000   0.186093
    50  H    0.000000   0.000000   0.000000   0.000000   0.000000   0.208722
              49         50
     1  C   -0.000013  -0.000007
     2  H    0.000000   0.000000
     3  H    0.000000   0.000000
     4  C    0.000241   0.000023
     5  H    0.000000   0.000000
     6  C   -0.000006   0.000016
     7  H    0.000001   0.000000
     8  O   -0.000097   0.000004
     9  O   -0.000593   0.000068
    10  H    0.000005   0.000000
    11  H    0.000016   0.000000
    12  O   -0.000002   0.000000
    13  H    0.000000   0.000000
    14  H    0.000000   0.000000
    15  O    0.000000   0.000000
    16  H    0.000000   0.000000
    17  H    0.000000   0.000000
    18  O    0.000000   0.000000
    19  H    0.000000   0.000000
    20  H    0.000000   0.000000
    21  O    0.000000   0.000000
    22  H    0.000000   0.000000
    23  H    0.000000   0.000000
    24  O    0.000000   0.000000
    25  H    0.000000   0.000000
    26  H    0.000000   0.000000
    27  O    0.000000   0.000000
    28  H    0.000000   0.000000
    29  H    0.000000   0.000000
    30  O    0.000000   0.000000
    31  H    0.000000   0.000000
    32  H    0.000000   0.000000
    33  O    0.015720   0.002003
    34  H    0.001813   0.000177
    35  H    0.000739  -0.000268
    36  O    0.000153   0.000003
    37  H    0.000000   0.000000
    38  H    0.000025  -0.000001
    39  O    0.000000   0.000000
    40  H    0.000000   0.000000
    41  H    0.000000   0.000000
    42  O    0.000000   0.000000
    43  H    0.000000   0.000000
    44  H    0.000000   0.000000
    45  O    0.000000   0.000000
    46  H    0.000000   0.000000
    47  H    0.000000   0.000000
    48  O    0.186093   0.208722
    49  H    0.184021  -0.007468
    50  H   -0.007468   0.206019
 Mulliken charges:
               1
     1  C   -0.344427
     2  H    0.289423
     3  H    0.208586
     4  C   -0.093559
     5  H    0.222980
     6  C   -0.111680
     7  H    0.149370
     8  O   -0.303309
     9  O   -1.126299
    10  H    0.514759
    11  H    0.638989
    12  O   -1.038633
    13  H    0.574952
    14  H    0.491329
    15  O   -1.248730
    16  H    0.609693
    17  H    0.615640
    18  O   -1.169389
    19  H    0.568629
    20  H    0.606879
    21  O   -1.100200
    22  H    0.637793
    23  H    0.544999
    24  O   -1.214818
    25  H    0.560727
    26  H    0.604907
    27  O   -1.136158
    28  H    0.649176
    29  H    0.510954
    30  O   -1.250693
    31  H    0.641935
    32  H    0.599564
    33  O   -1.234947
    34  H    0.582252
    35  H    0.640026
    36  O   -1.199535
    37  H    0.580750
    38  H    0.590193
    39  O   -1.242308
    40  H    0.612632
    41  H    0.620862
    42  O   -1.273061
    43  H    0.622265
    44  H    0.617597
    45  O   -1.271995
    46  H    0.643147
    47  H    0.620868
    48  O   -1.222201
    49  H    0.619351
    50  H    0.590710
 Sum of Mulliken charges =   0.00000
 Mulliken charges with hydrogens summed into heavy atoms:
               1
     1  C    0.153582
     4  C    0.129422
     6  C    0.037691
     8  O   -0.303309
     9  O    0.027449
    12  O    0.027649
    15  O   -0.023397
    18  O    0.006118
    21  O    0.082592
    24  O   -0.049183
    27  O    0.023972
    30  O   -0.009194
    33  O   -0.012669
    36  O   -0.028592
    39  O   -0.008814
    42  O   -0.033198
    45  O   -0.007979
    48  O   -0.012140
 Electronic spatial extent (au):  <R**2>=          12451.8053
 Charge=              0.0000 electrons
 Dipole moment (field-independent basis, Debye):
    X=             12.9531    Y=            -10.2381    Z=             -7.3727  Tot=             18.0820
 Quadrupole moment (field-independent basis, Debye-Ang):
   XX=            -87.4637   YY=            -63.9520   ZZ=           -157.1699
   XY=             54.9986   XZ=            -12.5214   YZ=             41.5790
 Traceless Quadrupole moment (field-independent basis, Debye-Ang):
   XX=             15.3981   YY=             38.9099   ZZ=            -54.3080
   XY=             54.9986   XZ=            -12.5214   YZ=             41.5790
 Octapole moment (field-independent basis, Debye-Ang**2):
  XXX=            333.6768  YYY=             24.9388  ZZZ=           -183.9790  XYY=            -73.6814
  XXY=           -220.7958  XXZ=             43.8041  XZZ=            140.3032  YZZ=            -16.5987
  YYZ=            102.6080  XYZ=             -9.5756
 Hexadecapole moment (field-independent basis, Debye-Ang**3):
 XXXX=          -5786.0642 YYYY=          -2800.2002 ZZZZ=          -2108.8018 XXXY=           1130.9755
 XXXZ=          -1695.9210 YYYX=            560.7834 YYYZ=            468.7692 ZZZX=            101.4544
 ZZZY=            447.7384 XXYY=          -1988.5897 XXZZ=          -1646.6506 YYZZ=          -1286.4634
 XXYZ=            580.0642 YYXZ=            313.8424 ZZXY=              6.6595
 N-N= 1.091376936694D+03 E-N=-6.152196793440D+03  KE= 1.249212438209D+03
 Leave Link  601 at Fri Sep 14 19:46:11 2018, MaxMem=    33554432 cpu:         3.1
 (Enter /usr/local/pacerepov1/gaussian/G09D01LINDA/g09/l9999.exe)

 Test job not archived.
 1\1\GINC-RICH133-G13-27-L\SP\RLC-wPBE TD-FC\6-31+G(d)\C3H32O15\ROOT\14
 -Sep-2018\0\\#p td=(nstates=15)/6-31+g(d) lc-wpbe charge\\Acroleina in
  Water\\0,1\C,0,0.485154,0.480443,-1.430142\H,0,1.461403,0.187773,-1.0
 55732\H,0,0.429244,0.878853,-2.437062\C,0,-0.605127,0.346563,-0.658432
 \H,0,-1.591686,0.632893,-1.012412\C,0,-0.508516,-0.199107,0.712798\H,0
 ,-1.458487,-0.272107,1.272438\O,0,0.544883,-0.561317,1.236519\O,0,-0.8
 44709,-1.701593,3.20097\H,0,-0.750819,-0.905953,2.60251\H,0,-0.579219,
 -1.451423,4.13209\O,0,2.067322,1.282967,1.72223\H,0,2.137671,2.193277,
 1.31422\H,0,1.110461,1.086947,1.93673\O,0,1.438131,3.394097,0.56818\H,
 0,2.047401,3.811597,-0.10598\H,0,0.494501,3.444367,0.24088\O,0,-0.5690
 89,3.858557,-0.61224\H,0,-0.179789,4.746427,-0.85752\H,0,-1.507559,3.8
 00607,-0.95276\O,0,2.986212,-1.538623,-4.5213\H,0,2.486212,-1.342823,-
 5.36495\H,0,3.486571,-0.722073,-4.23331\O,0,3.681391,-3.542543,-3.8003
 2\H,0,4.413961,-3.310083,-3.1605\H,0,3.152622,-2.721153,-4.01427\O,0,-
 3.445688,4.462077,1.56774\H,0,-4.387279,4.155467,1.70734\H,0,-2.821349
 ,3.856427,2.06114\O,0,-3.159649,3.860167,-0.86258\H,0,-4.054129,3.5060
 67,-1.13568\H,0,-3.211579,4.211587,0.07222\O,0,0.129271,-3.901043,2.99
 169\H,0,-0.419039,-3.080413,2.83052\H,0,-0.468409,-4.650683,3.27594\O,
 0,-3.028898,-2.668553,3.49479\H,0,-3.048459,-3.047203,4.42016\H,0,-2.1
 05889,-2.344963,3.28653\O,0,4.253081,1.196497,-1.29149\H,0,4.064151,2.
 089517,-1.70004\H,0,4.380742,0.518877,-2.01581\O,0,4.278061,1.139647,0
 .99072\H,0,4.131641,1.099487,0.0023\H,0,3.394701,1.190907,1.45667\O,0,
 4.707292,-0.654343,-2.90862\H,0,5.369021,-0.375303,-3.60452\H,0,4.9717
 32,-1.543343,-2.53472\O,0,1.571991,-5.358343,1.8049\H,0,1.001891,-4.61
 8333,2.16188\H,0,1.810591,-5.983413,2.54813\\Version=EM64L-G09RevD.01\
 State=1-A\HF=-1759.0516544\RMSD=3.824e-09\PG=C01 [X(C3H32O15)]\\@


 THE SOLUTION TO A PROBLEM CHANGES THE PROBLEM.

                                 -- JOHN PEERS
           PAUL DICKSON'S "THE OFFICIAL RULES"
 Job cpu time:       0 days  2 hours 51 minutes 59.6 seconds.
 File lengths (MBytes):  RWF=    792 Int=      0 D2E=      0 Chk=     96 Scr=      2
 Normal termination of Gaussian 09 at Fri Sep 14 19:46:19 2018.
