 Entering Gaussian System, Link 0=g09
 Input=Acroleina_water_15_29c.gjf
 Output=Acroleina_water_15_29c.log
 Initial command:
 /usr/local/pacerepov1/gaussian/G09D01LINDA/g09/l1.exe /nv/hp18/holiveira7/scratch/22411861/Gau-24707.inp -scrdir=/nv/hp18/holiveira7/scratch/22411861/
 Entering Link 1 = /usr/local/pacerepov1/gaussian/G09D01LINDA/g09/l1.exe PID=     24719.
  
 Copyright (c) 1988,1990,1992,1993,1995,1998,2003,2009,2013,
            Gaussian, Inc.  All Rights Reserved.
  
 This is part of the Gaussian(R) 09 program.  It is based on
 the Gaussian(R) 03 system (copyright 2003, Gaussian, Inc.),
 the Gaussian(R) 98 system (copyright 1998, Gaussian, Inc.),
 the Gaussian(R) 94 system (copyright 1995, Gaussian, Inc.),
 the Gaussian 92(TM) system (copyright 1992, Gaussian, Inc.),
 the Gaussian 90(TM) system (copyright 1990, Gaussian, Inc.),
 the Gaussian 88(TM) system (copyright 1988, Gaussian, Inc.),
 the Gaussian 86(TM) system (copyright 1986, Carnegie Mellon
 University), and the Gaussian 82(TM) system (copyright 1983,
 Carnegie Mellon University). Gaussian is a federally registered
 trademark of Gaussian, Inc.
  
 This software contains proprietary and confidential information,
 including trade secrets, belonging to Gaussian, Inc.
  
 This software is provided under written license and may be
 used, copied, transmitted, or stored only in accord with that
 written license.
  
 The following legend is applicable only to US Government
 contracts under FAR:
  
                    RESTRICTED RIGHTS LEGEND
  
 Use, reproduction and disclosure by the US Government is
 subject to restrictions as set forth in subparagraphs (a)
 and (c) of the Commercial Computer Software - Restricted
 Rights clause in FAR 52.227-19.
  
 Gaussian, Inc.
 340 Quinnipiac St., Bldg. 40, Wallingford CT 06492
  
  
 ---------------------------------------------------------------
 Warning -- This program may not be used in any manner that
 competes with the business of Gaussian, Inc. or will provide
 assistance to any competitor of Gaussian, Inc.  The licensee
 of this program is prohibited from giving any competitor of
 Gaussian, Inc. access to this program.  By using this program,
 the user acknowledges that Gaussian, Inc. is engaged in the
 business of creating and licensing software in the field of
 computational chemistry and represents and warrants to the
 licensee that it is not a competitor of Gaussian, Inc. and that
 it will not use this program in any manner prohibited above.
 ---------------------------------------------------------------
  

 Cite this work as:
 Gaussian 09, Revision D.01,
 M. J. Frisch, G. W. Trucks, H. B. Schlegel, G. E. Scuseria, 
 M. A. Robb, J. R. Cheeseman, G. Scalmani, V. Barone, B. Mennucci, 
 G. A. Petersson, H. Nakatsuji, M. Caricato, X. Li, H. P. Hratchian, 
 A. F. Izmaylov, J. Bloino, G. Zheng, J. L. Sonnenberg, M. Hada, 
 M. Ehara, K. Toyota, R. Fukuda, J. Hasegawa, M. Ishida, T. Nakajima, 
 Y. Honda, O. Kitao, H. Nakai, T. Vreven, J. A. Montgomery, Jr., 
 J. E. Peralta, F. Ogliaro, M. Bearpark, J. J. Heyd, E. Brothers, 
 K. N. Kudin, V. N. Staroverov, T. Keith, R. Kobayashi, J. Normand, 
 K. Raghavachari, A. Rendell, J. C. Burant, S. S. Iyengar, J. Tomasi, 
 M. Cossi, N. Rega, J. M. Millam, M. Klene, J. E. Knox, J. B. Cross, 
 V. Bakken, C. Adamo, J. Jaramillo, R. Gomperts, R. E. Stratmann, 
 O. Yazyev, A. J. Austin, R. Cammi, C. Pomelli, J. W. Ochterski, 
 R. L. Martin, K. Morokuma, V. G. Zakrzewski, G. A. Voth, 
 P. Salvador, J. J. Dannenberg, S. Dapprich, A. D. Daniels, 
 O. Farkas, J. B. Foresman, J. V. Ortiz, J. Cioslowski, 
 and D. J. Fox, Gaussian, Inc., Wallingford CT, 2013.
 
 ******************************************
 Gaussian 09:  EM64L-G09RevD.01 24-Apr-2013
                14-Sep-2018 
 ******************************************
 %chk=Acrolina_Din_29.chk
 %nprocshared=10
 Will use up to   10 processors via shared memory.
 -------------------------------------------
 #p td=(nstates=15)/6-31+g(d) lc-wpbe charge
 -------------------------------------------
 1/18=10,28=-2,38=1,125=101/1;
 2/12=2,17=6,18=5,40=1/2;
 3/5=1,6=6,7=11,11=9,16=1,25=1,30=1,74=-41/1,2,8,3;
 4//1;
 5/5=2,38=5/2;
 8/6=1,10=2,108=15/1;
 9/41=15,42=1,70=2/14;
 6/7=2,8=2,9=2,10=2/1;
 99/5=1,9=1/99;
 Leave Link    1 at Fri Sep 14 16:56:01 2018, MaxMem=           0 cpu:        26.9
 (Enter /usr/local/pacerepov1/gaussian/G09D01LINDA/g09/l101.exe)
 ------------------
 Acroleina in Water
 ------------------
 Symbolic Z-matrix:
 Charge =  0 Multiplicity = 1
 C                     0.48515   0.48044  -1.43014 
 H                     1.4614    0.18777  -1.05573 
 H                     0.42924   0.87885  -2.43706 
 C                    -0.60513   0.34656  -0.65843 
 H                    -1.59169   0.63289  -1.01241 
 C                    -0.50852  -0.19911   0.7128 
 H                    -1.45849  -0.27211   1.27244 
 O                     0.54488  -0.56132   1.23652 
 O                     2.08901   1.72998   1.2581 
 H                     1.67872   2.55223   0.86358 
 H                     1.37792   1.04412   1.41289 
 O                    -1.16873  -1.27416   3.14975 
 H                    -1.05268  -0.53069   2.49112 
 H                    -0.61499  -1.08952   3.96174 
 O                     1.13558   3.71356   0.31035 
 H                     1.72697   3.87053  -0.48061 
 H                     0.20015   3.98747   0.08667 
 O                    -0.86215   4.38642  -0.59456 
 H                    -0.36114   5.10161  -1.08192 
 H                    -1.80825   4.36302  -0.91765 
 O                     0.02278  -3.28538   2.58745 
 H                    -0.47909  -2.43396   2.73999 
 H                    -0.55997  -4.06275   2.82427 
 O                     4.21779   1.16991   0.54842 
 H                     4.18643   1.35016  -0.43472 
 H                     3.29672   1.24509   0.93057 
 O                     1.56888  -4.92612   1.82993 
 H                     0.98242  -4.13396   1.99911 
 H                     1.795    -5.36514   2.69952 
 O                    -3.32529  -1.41583   3.76872 
 H                    -3.35055  -1.98984   4.58721 
 H                    -2.38059  -1.32705   3.45295 
 O                     4.42014  -0.41997  -3.44036 
 H                     5.02772  -0.44878  -4.23411 
 H                     4.62503  -1.1897   -2.83572 
 O                     2.71785  -1.50846  -5.11609 
 H                     2.10444  -1.05072  -5.75974 
 H                     3.15518  -0.82634  -4.53001 
 O                     3.80854  -3.47451  -3.95701 
 H                     4.41504  -3.08763  -3.26235 
 H                     3.27153  -2.7422   -4.37581 
 O                     1.94713  -2.41141   4.17798 
 H                     2.85366  -2.34536   3.76098 
 H                     1.3088   -2.81904   3.52497 
 O                    -3.31919   4.37742  -1.09972 
 H                    -4.15334   3.89542  -1.36791 
 H                    -3.48263   4.87902  -0.25016 
 O                     4.99489  -2.45991   1.56714 
 H                     4.79032  -2.91719   0.70164 
 H                     5.27692  -3.13937   2.24451 
 
 NAtoms=     50 NQM=       50 NQMF=       0 NMMI=      0 NMMIF=      0
                NMic=       0 NMicF=      0.
                    Isotopes and Nuclear Properties:
 (Nuclear quadrupole moments (NQMom) in fm**2, nuclear magnetic moments (NMagM)
  in nuclear magnetons)

  Atom         1           2           3           4           5           6           7           8           9          10
 IAtWgt=          12           1           1          12           1          12           1          16          16           1
 AtmWgt=  12.0000000   1.0078250   1.0078250  12.0000000   1.0078250  12.0000000   1.0078250  15.9949146  15.9949146   1.0078250
 NucSpn=           0           1           1           0           1           0           1           0           0           1
 AtZEff=   0.0000000   0.0000000   0.0000000   0.0000000   0.0000000   0.0000000   0.0000000   0.0000000   0.0000000   0.0000000
 NQMom=    0.0000000   0.0000000   0.0000000   0.0000000   0.0000000   0.0000000   0.0000000   0.0000000   0.0000000   0.0000000
 NMagM=    0.0000000   2.7928460   2.7928460   0.0000000   2.7928460   0.0000000   2.7928460   0.0000000   0.0000000   2.7928460
 AtZNuc=   6.0000000   1.0000000   1.0000000   6.0000000   1.0000000   6.0000000   1.0000000   8.0000000   8.0000000   1.0000000

  Atom        11          12          13          14          15          16          17          18          19          20
 IAtWgt=           1          16           1           1          16           1           1          16           1           1
 AtmWgt=   1.0078250  15.9949146   1.0078250   1.0078250  15.9949146   1.0078250   1.0078250  15.9949146   1.0078250   1.0078250
 NucSpn=           1           0           1           1           0           1           1           0           1           1
 AtZEff=   0.0000000   0.0000000   0.0000000   0.0000000   0.0000000   0.0000000   0.0000000   0.0000000   0.0000000   0.0000000
 NQMom=    0.0000000   0.0000000   0.0000000   0.0000000   0.0000000   0.0000000   0.0000000   0.0000000   0.0000000   0.0000000
 NMagM=    2.7928460   0.0000000   2.7928460   2.7928460   0.0000000   2.7928460   2.7928460   0.0000000   2.7928460   2.7928460
 AtZNuc=   1.0000000   8.0000000   1.0000000   1.0000000   8.0000000   1.0000000   1.0000000   8.0000000   1.0000000   1.0000000

  Atom        21          22          23          24          25          26          27          28          29          30
 IAtWgt=          16           1           1          16           1           1          16           1           1          16
 AtmWgt=  15.9949146   1.0078250   1.0078250  15.9949146   1.0078250   1.0078250  15.9949146   1.0078250   1.0078250  15.9949146
 NucSpn=           0           1           1           0           1           1           0           1           1           0
 AtZEff=   0.0000000   0.0000000   0.0000000   0.0000000   0.0000000   0.0000000   0.0000000   0.0000000   0.0000000   0.0000000
 NQMom=    0.0000000   0.0000000   0.0000000   0.0000000   0.0000000   0.0000000   0.0000000   0.0000000   0.0000000   0.0000000
 NMagM=    0.0000000   2.7928460   2.7928460   0.0000000   2.7928460   2.7928460   0.0000000   2.7928460   2.7928460   0.0000000
 AtZNuc=   8.0000000   1.0000000   1.0000000   8.0000000   1.0000000   1.0000000   8.0000000   1.0000000   1.0000000   8.0000000

  Atom        31          32          33          34          35          36          37          38          39          40
 IAtWgt=           1           1          16           1           1          16           1           1          16           1
 AtmWgt=   1.0078250   1.0078250  15.9949146   1.0078250   1.0078250  15.9949146   1.0078250   1.0078250  15.9949146   1.0078250
 NucSpn=           1           1           0           1           1           0           1           1           0           1
 AtZEff=   0.0000000   0.0000000   0.0000000   0.0000000   0.0000000   0.0000000   0.0000000   0.0000000   0.0000000   0.0000000
 NQMom=    0.0000000   0.0000000   0.0000000   0.0000000   0.0000000   0.0000000   0.0000000   0.0000000   0.0000000   0.0000000
 NMagM=    2.7928460   2.7928460   0.0000000   2.7928460   2.7928460   0.0000000   2.7928460   2.7928460   0.0000000   2.7928460
 AtZNuc=   1.0000000   1.0000000   8.0000000   1.0000000   1.0000000   8.0000000   1.0000000   1.0000000   8.0000000   1.0000000

  Atom        41          42          43          44          45          46          47          48          49          50
 IAtWgt=           1          16           1           1          16           1           1          16           1           1
 AtmWgt=   1.0078250  15.9949146   1.0078250   1.0078250  15.9949146   1.0078250   1.0078250  15.9949146   1.0078250   1.0078250
 NucSpn=           1           0           1           1           0           1           1           0           1           1
 AtZEff=   0.0000000   0.0000000   0.0000000   0.0000000   0.0000000   0.0000000   0.0000000   0.0000000   0.0000000   0.0000000
 NQMom=    0.0000000   0.0000000   0.0000000   0.0000000   0.0000000   0.0000000   0.0000000   0.0000000   0.0000000   0.0000000
 NMagM=    2.7928460   0.0000000   2.7928460   2.7928460   0.0000000   2.7928460   2.7928460   0.0000000   2.7928460   2.7928460
 AtZNuc=   1.0000000   8.0000000   1.0000000   1.0000000   8.0000000   1.0000000   1.0000000   8.0000000   1.0000000   1.0000000
 Background charge distribution read from input stream:
 Point Charges:
 XYZ=    3.9804   -1.8388    3.5824 Q=   -0.8200 A=    0.0000 R=    0.0000 C=    0.0000
 XYZ=    4.2502   -0.9208    3.8732 Q=    0.4100 A=    0.0000 R=    0.0000 C=    0.0000
 XYZ=    4.2879   -1.9949    2.6437 Q=    0.4100 A=    0.0000 R=    0.0000 C=    0.0000
 XYZ=    4.5370    1.2969   -1.8270 Q=   -0.8200 A=    0.0000 R=    0.0000 C=    0.0000
 XYZ=    4.2165    2.1380   -2.2629 Q=    0.4100 A=    0.0000 R=    0.0000 C=    0.0000
 XYZ=    4.4668    0.5382   -2.4747 Q=    0.4100 A=    0.0000 R=    0.0000 C=    0.0000
 XYZ=    5.2275   -2.4392   -2.2361 Q=   -0.8200 A=    0.0000 R=    0.0000 C=    0.0000
 XYZ=    6.0635   -1.9186   -2.0621 Q=    0.4100 A=    0.0000 R=    0.0000 C=    0.0000
 XYZ=    5.0354   -3.0323   -1.4543 Q=    0.4100 A=    0.0000 R=    0.0000 C=    0.0000
 XYZ=    4.7298   -3.7352   -0.3074 Q=   -0.8200 A=    0.0000 R=    0.0000 C=    0.0000
 XYZ=    4.1819   -4.4506    0.1264 Q=    0.4100 A=    0.0000 R=    0.0000 C=    0.0000
 XYZ=    5.6022   -4.1202   -0.6087 Q=    0.4100 A=    0.0000 R=    0.0000 C=    0.0000
 XYZ=    0.1431   -1.1087    5.1875 Q=   -0.8200 A=    0.0000 R=    0.0000 C=    0.0000
 XYZ=    0.4715   -0.4021    5.8142 Q=    0.4100 A=    0.0000 R=    0.0000 C=    0.0000
 XYZ=    0.9083   -1.6895    4.9096 Q=    0.4100 A=    0.0000 R=    0.0000 C=    0.0000
 XYZ=    3.4988   -5.4914    0.6738 Q=   -0.8200 A=    0.0000 R=    0.0000 C=    0.0000
 XYZ=    2.7053   -5.1380    1.1692 Q=    0.4100 A=    0.0000 R=    0.0000 C=    0.0000
 XYZ=    3.1950   -6.1454   -0.0191 Q=    0.4100 A=    0.0000 R=    0.0000 C=    0.0000
 XYZ=    5.9244   -0.4278    1.0359 Q=   -0.8200 A=    0.0000 R=    0.0000 C=    0.0000
 XYZ=    5.1719    0.2309    1.0401 Q=    0.4100 A=    0.0000 R=    0.0000 C=    0.0000
 XYZ=    5.5694   -1.3407    1.2374 Q=    0.4100 A=    0.0000 R=    0.0000 C=    0.0000
 XYZ=    3.3640   -5.8520   -3.2187 Q=   -0.8200 A=    0.0000 R=    0.0000 C=    0.0000
 XYZ=    3.6510   -4.9362   -3.4996 Q=    0.4100 A=    0.0000 R=    0.0000 C=    0.0000
 XYZ=    2.6771   -6.1969   -3.8586 Q=    0.4100 A=    0.0000 R=    0.0000 C=    0.0000
 XYZ=    2.5566    5.1869    1.5465 Q=   -0.8200 A=    0.0000 R=    0.0000 C=    0.0000
 XYZ=    1.9394    4.4916    1.1782 Q=    0.4100 A=    0.0000 R=    0.0000 C=    0.0000
 XYZ=    2.7743    5.8516    0.8318 Q=    0.4100 A=    0.0000 R=    0.0000 C=    0.0000
 XYZ=   -2.5472    6.1827   -2.3653 Q=   -0.8200 A=    0.0000 R=    0.0000 C=    0.0000
 XYZ=   -2.8301    5.4125   -1.7936 Q=    0.4100 A=    0.0000 R=    0.0000 C=    0.0000
 XYZ=   -2.7760    7.0408   -1.9055 Q=    0.4100 A=    0.0000 R=    0.0000 C=    0.0000
 XYZ=   -3.6956    5.1882    1.4396 Q=   -0.8200 A=    0.0000 R=    0.0000 C=    0.0000
 XYZ=   -4.6040    4.7719    1.3994 Q=    0.4100 A=    0.0000 R=    0.0000 C=    0.0000
 XYZ=   -3.2547    4.9434    2.3032 Q=    0.4100 A=    0.0000 R=    0.0000 C=    0.0000
 XYZ=    0.8156   -6.7588    0.4579 Q=   -0.8200 A=    0.0000 R=    0.0000 C=    0.0000
 XYZ=    1.0058   -5.9154    0.9603 Q=    0.4100 A=    0.0000 R=    0.0000 C=    0.0000
 XYZ=    1.5530   -6.9311   -0.1953 Q=    0.4100 A=    0.0000 R=    0.0000 C=    0.0000
 XYZ=    1.3403    0.4121    6.3973 Q=   -0.8200 A=    0.0000 R=    0.0000 C=    0.0000
 XYZ=    1.9142   -0.2322    6.9027 Q=    0.4100 A=    0.0000 R=    0.0000 C=    0.0000
 XYZ=    1.9138    0.9683    5.7958 Q=    0.4100 A=    0.0000 R=    0.0000 C=    0.0000
 XYZ=    2.7416   -7.0055   -1.1174 Q=   -0.8200 A=    0.0000 R=    0.0000 C=    0.0000
 XYZ=    3.5902   -7.5075   -0.9503 Q=    0.4100 A=    0.0000 R=    0.0000 C=    0.0000
 XYZ=    2.8658   -6.3911   -1.8966 Q=    0.4100 A=    0.0000 R=    0.0000 C=    0.0000
 XYZ=   -5.4659    3.7146   -1.9940 Q=   -0.8200 A=    0.0000 R=    0.0000 C=    0.0000
 XYZ=   -6.0222    4.4340   -1.5780 Q=    0.4100 A=    0.0000 R=    0.0000 C=    0.0000
 XYZ=   -5.9693    2.8507   -1.9743 Q=    0.4100 A=    0.0000 R=    0.0000 C=    0.0000
 XYZ=    5.2650    2.7520    1.9586 Q=   -0.8200 A=    0.0000 R=    0.0000 C=    0.0000
 XYZ=    4.6329    3.3840    2.4070 Q=    0.4100 A=    0.0000 R=    0.0000 C=    0.0000
 XYZ=    4.7977    2.2936    1.2027 Q=    0.4100 A=    0.0000 R=    0.0000 C=    0.0000
 XYZ=    3.6393   -4.4390   -6.3112 Q=   -0.8200 A=    0.0000 R=    0.0000 C=    0.0000
 XYZ=    3.7009   -4.1319   -5.3615 Q=    0.4100 A=    0.0000 R=    0.0000 C=    0.0000
 XYZ=    4.5554   -4.4719   -6.7109 Q=    0.4100 A=    0.0000 R=    0.0000 C=    0.0000
 XYZ=   -5.6698   -2.1084    2.3305 Q=   -0.8200 A=    0.0000 R=    0.0000 C=    0.0000
 XYZ=   -4.6904   -1.9092    2.2965 Q=    0.4100 A=    0.0000 R=    0.0000 C=    0.0000
 XYZ=   -5.8220   -2.9432    2.8597 Q=    0.4100 A=    0.0000 R=    0.0000 C=    0.0000
 XYZ=    0.4497    5.8631   -1.8987 Q=   -0.8200 A=    0.0000 R=    0.0000 C=    0.0000
 XYZ=    1.3871    5.5211   -1.9646 Q=    0.4100 A=    0.0000 R=    0.0000 C=    0.0000
 XYZ=    0.0811    6.0044   -2.8176 Q=    0.4100 A=    0.0000 R=    0.0000 C=    0.0000
 XYZ=   -1.3621   -2.4544    6.5445 Q=   -0.8200 A=    0.0000 R=    0.0000 C=    0.0000
 XYZ=   -0.9652   -1.8075    5.8933 Q=    0.4100 A=    0.0000 R=    0.0000 C=    0.0000
 XYZ=   -2.2064   -2.8332    6.1654 Q=    0.4100 A=    0.0000 R=    0.0000 C=    0.0000
 XYZ=    1.3187   -0.6740   -6.7381 Q=   -0.8200 A=    0.0000 R=    0.0000 C=    0.0000
 XYZ=    1.5346    0.1837   -7.2047 Q=    0.4100 A=    0.0000 R=    0.0000 C=    0.0000
 XYZ=    0.4084   -0.9832   -7.0135 Q=    0.4100 A=    0.0000 R=    0.0000 C=    0.0000
 XYZ=    6.5927    0.8119   -0.8204 Q=   -0.8200 A=    0.0000 R=    0.0000 C=    0.0000
 XYZ=    5.7436    1.0544   -1.2896 Q=    0.4100 A=    0.0000 R=    0.0000 C=    0.0000
 XYZ=    6.3789    0.4212    0.0750 Q=    0.4100 A=    0.0000 R=    0.0000 C=    0.0000
 XYZ=    2.4311    4.6803   -1.5190 Q=   -0.8200 A=    0.0000 R=    0.0000 C=    0.0000
 XYZ=    2.7802    5.4753   -1.0230 Q=    0.4100 A=    0.0000 R=    0.0000 C=    0.0000
 XYZ=    3.1852    4.2254   -1.9926 Q=    0.4100 A=    0.0000 R=    0.0000 C=    0.0000
 XYZ=   -5.4253   -0.6849    4.3468 Q=   -0.8200 A=    0.0000 R=    0.0000 C=    0.0000
 XYZ=   -4.4452   -0.8498    4.2363 Q=    0.4100 A=    0.0000 R=    0.0000 C=    0.0000
 XYZ=   -5.9159   -1.0491    3.5552 Q=    0.4100 A=    0.0000 R=    0.0000 C=    0.0000
 XYZ=   -3.4849    1.6470   -6.4798 Q=   -0.8200 A=    0.0000 R=    0.0000 C=    0.0000
 XYZ=   -3.3059    2.3942   -5.8397 Q=    0.4100 A=    0.0000 R=    0.0000 C=    0.0000
 XYZ=   -3.5617    2.0137   -7.4070 Q=    0.4100 A=    0.0000 R=    0.0000 C=    0.0000
 XYZ=   -3.3224    3.7718   -5.2782 Q=   -0.8200 A=    0.0000 R=    0.0000 C=    0.0000
 XYZ=   -2.7369    4.1843   -4.5803 Q=    0.4100 A=    0.0000 R=    0.0000 C=    0.0000
 XYZ=   -4.2798    3.9734   -5.0716 Q=    0.4100 A=    0.0000 R=    0.0000 C=    0.0000
 XYZ=   -5.8758    4.1498    1.2443 Q=   -0.8200 A=    0.0000 R=    0.0000 C=    0.0000
 XYZ=   -6.3775    4.4533    0.4342 Q=    0.4100 A=    0.0000 R=    0.0000 C=    0.0000
 XYZ=   -6.2989    4.5379    2.0631 Q=    0.4100 A=    0.0000 R=    0.0000 C=    0.0000
 XYZ=    2.3640   -3.1091    6.3871 Q=   -0.8200 A=    0.0000 R=    0.0000 C=    0.0000
 XYZ=    2.2690   -2.8587    5.4236 Q=    0.4100 A=    0.0000 R=    0.0000 C=    0.0000
 XYZ=    2.5759   -2.2926    6.9243 Q=    0.4100 A=    0.0000 R=    0.0000 C=    0.0000
 XYZ=    4.4226   -5.9316    2.7482 Q=   -0.8200 A=    0.0000 R=    0.0000 C=    0.0000
 XYZ=    3.9979   -5.7680    1.8577 Q=    0.4100 A=    0.0000 R=    0.0000 C=    0.0000
 XYZ=    3.7131   -6.1321    3.4239 Q=    0.4100 A=    0.0000 R=    0.0000 C=    0.0000
 XYZ=    4.8433   -3.1135    5.3213 Q=   -0.8200 A=    0.0000 R=    0.0000 C=    0.0000
 XYZ=    4.5011   -2.5843    4.5448 Q=    0.4100 A=    0.0000 R=    0.0000 C=    0.0000
 XYZ=    4.0885   -3.6202    5.7379 Q=    0.4100 A=    0.0000 R=    0.0000 C=    0.0000
 XYZ=    4.6320    0.1953    4.7644 Q=   -0.8200 A=    0.0000 R=    0.0000 C=    0.0000
 XYZ=    4.7507   -0.3521    5.5929 Q=    0.4100 A=    0.0000 R=    0.0000 C=    0.0000
 XYZ=    3.9415    0.9002    4.9269 Q=    0.4100 A=    0.0000 R=    0.0000 C=    0.0000
 XYZ=   -2.9196    7.3996    0.9735 Q=   -0.8200 A=    0.0000 R=    0.0000 C=    0.0000
 XYZ=   -3.2636    8.0298    1.6697 Q=    0.4100 A=    0.0000 R=    0.0000 C=    0.0000
 XYZ=   -3.1869    6.4651    1.2086 Q=    0.4100 A=    0.0000 R=    0.0000 C=    0.0000
 XYZ=    3.1460   -2.4318   -7.5377 Q=   -0.8200 A=    0.0000 R=    0.0000 C=    0.0000
 XYZ=    3.3570   -3.2870   -7.0642 Q=    0.4100 A=    0.0000 R=    0.0000 C=    0.0000
 XYZ=    2.4494   -1.9300   -7.0247 Q=    0.4100 A=    0.0000 R=    0.0000 C=    0.0000
 XYZ=    5.5722   -6.0929   -2.4696 Q=   -0.8200 A=    0.0000 R=    0.0000 C=    0.0000
 XYZ=    4.6297   -6.0142   -2.7944 Q=    0.4100 A=    0.0000 R=    0.0000 C=    0.0000
 XYZ=    6.1430   -6.4800   -3.1938 Q=    0.4100 A=    0.0000 R=    0.0000 C=    0.0000
 XYZ=   -1.3697   -5.1377    3.4197 Q=   -0.8200 A=    0.0000 R=    0.0000 C=    0.0000
 XYZ=   -1.7226   -5.8803    2.8505 Q=    0.4100 A=    0.0000 R=    0.0000 C=    0.0000
 XYZ=   -0.6853   -5.4995    4.0528 Q=    0.4100 A=    0.0000 R=    0.0000 C=    0.0000
 XYZ=   -5.5481    0.9216   -5.5112 Q=   -0.8200 A=    0.0000 R=    0.0000 C=    0.0000
 XYZ=   -5.2466    0.2138   -4.8724 Q=    0.4100 A=    0.0000 R=    0.0000 C=    0.0000
 XYZ=   -4.7629    1.2573   -6.0315 Q=    0.4100 A=    0.0000 R=    0.0000 C=    0.0000
 XYZ=   -5.5844    4.0728   -4.3276 Q=   -0.8200 A=    0.0000 R=    0.0000 C=    0.0000
 XYZ=   -5.3958    3.8352   -3.3747 Q=    0.4100 A=    0.0000 R=    0.0000 C=    0.0000
 XYZ=   -6.4312    3.6287   -4.6206 Q=    0.4100 A=    0.0000 R=    0.0000 C=    0.0000
 XYZ=    3.2187    1.7571    5.7441 Q=   -0.8200 A=    0.0000 R=    0.0000 C=    0.0000
 XYZ=    3.8682    1.5752    6.4824 Q=    0.4100 A=    0.0000 R=    0.0000 C=    0.0000
 XYZ=    3.2736    2.7206    5.4819 Q=    0.4100 A=    0.0000 R=    0.0000 C=    0.0000
 XYZ=    4.1123    4.4459    3.1665 Q=   -0.8200 A=    0.0000 R=    0.0000 C=    0.0000
 XYZ=    3.6708    4.3883    4.0620 Q=    0.4100 A=    0.0000 R=    0.0000 C=    0.0000
 XYZ=    3.4515    4.7697    2.4894 Q=    0.4100 A=    0.0000 R=    0.0000 C=    0.0000
 XYZ=   -0.0326    1.9302    7.6458 Q=   -0.8200 A=    0.0000 R=    0.0000 C=    0.0000
 XYZ=    0.2958    1.1761    7.0770 Q=    0.4100 A=    0.0000 R=    0.0000 C=    0.0000
 XYZ=   -0.8743    1.6551    8.1105 Q=    0.4100 A=    0.0000 R=    0.0000 C=    0.0000
 XYZ=    4.1904    3.6201   -2.6488 Q=   -0.8200 A=    0.0000 R=    0.0000 C=    0.0000
 XYZ=    5.1317    3.6167   -2.3111 Q=    0.4100 A=    0.0000 R=    0.0000 C=    0.0000
 XYZ=    4.1855    3.8600   -3.6196 Q=    0.4100 A=    0.0000 R=    0.0000 C=    0.0000
 XYZ=   -0.6125    7.3590    1.6774 Q=   -0.8200 A=    0.0000 R=    0.0000 C=    0.0000
 XYZ=   -0.7040    8.2149    2.1864 Q=    0.4100 A=    0.0000 R=    0.0000 C=    0.0000
 XYZ=   -1.5139    7.0591    1.3650 Q=    0.4100 A=    0.0000 R=    0.0000 C=    0.0000
 XYZ=    7.2406   -1.5076   -1.3742 Q=   -0.8200 A=    0.0000 R=    0.0000 C=    0.0000
 XYZ=    7.0583   -0.5569   -1.1235 Q=    0.4100 A=    0.0000 R=    0.0000 C=    0.0000
 XYZ=    7.6417   -1.9871   -0.5937 Q=    0.4100 A=    0.0000 R=    0.0000 C=    0.0000
 XYZ=   -0.7366    6.5976   -3.7917 Q=   -0.8200 A=    0.0000 R=    0.0000 C=    0.0000
 XYZ=   -1.5438    6.3785   -3.2434 Q=    0.4100 A=    0.0000 R=    0.0000 C=    0.0000
 XYZ=   -0.6727    5.9607   -4.5599 Q=    0.4100 A=    0.0000 R=    0.0000 C=    0.0000
 XYZ=    5.7299   -3.8895    3.1985 Q=   -0.8200 A=    0.0000 R=    0.0000 C=    0.0000
 XYZ=    5.5250   -3.5585    4.1196 Q=    0.4100 A=    0.0000 R=    0.0000 C=    0.0000
 XYZ=    5.1906   -4.7106    3.0118 Q=    0.4100 A=    0.0000 R=    0.0000 C=    0.0000
 XYZ=    0.6699    6.1285    3.2872 Q=   -0.8200 A=    0.0000 R=    0.0000 C=    0.0000
 XYZ=    0.1047    6.5425    2.5737 Q=    0.4100 A=    0.0000 R=    0.0000 C=    0.0000
 XYZ=    1.5665    5.8969    2.9096 Q=    0.4100 A=    0.0000 R=    0.0000 C=    0.0000
 XYZ=   -7.4931    2.2922    1.1989 Q=   -0.8200 A=    0.0000 R=    0.0000 C=    0.0000
 XYZ=   -6.8724    3.0763    1.2025 Q=    0.4100 A=    0.0000 R=    0.0000 C=    0.0000
 XYZ=   -7.4906    1.8693    0.2927 Q=    0.4100 A=    0.0000 R=    0.0000 C=    0.0000
 XYZ=    0.9432    4.9188    5.5502 Q=   -0.8200 A=    0.0000 R=    0.0000 C=    0.0000
 XYZ=    0.4517    5.3703    4.8054 Q=    0.4100 A=    0.0000 R=    0.0000 C=    0.0000
 XYZ=    0.2888    4.5971    6.2346 Q=    0.4100 A=    0.0000 R=    0.0000 C=    0.0000
 XYZ=    7.2126   -2.5779   -4.6053 Q=   -0.8200 A=    0.0000 R=    0.0000 C=    0.0000
 XYZ=    7.9040   -2.3321   -3.9259 Q=    0.4100 A=    0.0000 R=    0.0000 C=    0.0000
 XYZ=    6.5447   -3.1970   -4.1921 Q=    0.4100 A=    0.0000 R=    0.0000 C=    0.0000
 XYZ=    0.8476    7.7225   -0.3583 Q=   -0.8200 A=    0.0000 R=    0.0000 C=    0.0000
 XYZ=    0.3458    7.5008    0.4778 Q=    0.4100 A=    0.0000 R=    0.0000 C=    0.0000
 XYZ=    0.6543    7.0324   -1.0559 Q=    0.4100 A=    0.0000 R=    0.0000 C=    0.0000
 XYZ=    6.2292    1.3043    3.4807 Q=   -0.8200 A=    0.0000 R=    0.0000 C=    0.0000
 XYZ=    5.7846    1.9179    2.8280 Q=    0.4100 A=    0.0000 R=    0.0000 C=    0.0000
 XYZ=    5.5368    0.8802    4.0644 Q=    0.4100 A=    0.0000 R=    0.0000 C=    0.0000
 XYZ=    1.9174   -6.2780    3.6854 Q=   -0.8200 A=    0.0000 R=    0.0000 C=    0.0000
 XYZ=    1.1329   -6.1866    4.2987 Q=    0.4100 A=    0.0000 R=    0.0000 C=    0.0000
 XYZ=    2.1135   -7.2474    3.5373 Q=    0.4100 A=    0.0000 R=    0.0000 C=    0.0000
 XYZ=    8.0953   -0.3111    2.1464 Q=   -0.8200 A=    0.0000 R=    0.0000 C=    0.0000
 XYZ=    8.0374   -0.1402    3.1300 Q=    0.4100 A=    0.0000 R=    0.0000 C=    0.0000
 XYZ=    7.1762   -0.3045    1.7523 Q=    0.4100 A=    0.0000 R=    0.0000 C=    0.0000
 XYZ=    6.8128   -5.0295   -0.7535 Q=   -0.8200 A=    0.0000 R=    0.0000 C=    0.0000
 XYZ=    7.7611   -5.3301   -0.8551 Q=    0.4100 A=    0.0000 R=    0.0000 C=    0.0000
 XYZ=    6.2615   -5.4090   -1.4966 Q=    0.4100 A=    0.0000 R=    0.0000 C=    0.0000
 XYZ=    6.0662   -0.4766   -5.4104 Q=   -0.8200 A=    0.0000 R=    0.0000 C=    0.0000
 XYZ=    6.4420    0.4462   -5.3251 Q=    0.4100 A=    0.0000 R=    0.0000 C=    0.0000
 XYZ=    6.7689   -1.1463   -5.1700 Q=    0.4100 A=    0.0000 R=    0.0000 C=    0.0000
 XYZ=    3.0989    4.1102    5.2068 Q=   -0.8200 A=    0.0000 R=    0.0000 C=    0.0000
 XYZ=    3.8166    4.5411    5.7538 Q=    0.4100 A=    0.0000 R=    0.0000 C=    0.0000
 XYZ=    2.2060    4.4523    5.4996 Q=    0.4100 A=    0.0000 R=    0.0000 C=    0.0000
 XYZ=   -0.4081    5.2468   -5.6778 Q=   -0.8200 A=    0.0000 R=    0.0000 C=    0.0000
 XYZ=   -0.9319    4.9812   -6.4873 Q=    0.4100 A=    0.0000 R=    0.0000 C=    0.0000
 XYZ=    0.5408    4.9489   -5.7824 Q=    0.4100 A=    0.0000 R=    0.0000 C=    0.0000
 XYZ=   -3.4765   -2.9397    5.4836 Q=   -0.8200 A=    0.0000 R=    0.0000 C=    0.0000
 XYZ=   -4.0499   -2.8254    6.2949 Q=    0.4100 A=    0.0000 R=    0.0000 C=    0.0000
 XYZ=   -3.4220   -3.9100    5.2480 Q=    0.4100 A=    0.0000 R=    0.0000 C=    0.0000
 XYZ=   -7.6576    1.5262   -1.0206 Q=   -0.8200 A=    0.0000 R=    0.0000 C=    0.0000
 XYZ=   -7.8255    0.5448   -0.9271 Q=    0.4100 A=    0.0000 R=    0.0000 C=    0.0000
 XYZ=   -8.2102    1.8887   -1.7711 Q=    0.4100 A=    0.0000 R=    0.0000 C=    0.0000
 XYZ=    0.8180    3.1130   -7.7041 Q=   -0.8200 A=    0.0000 R=    0.0000 C=    0.0000
 XYZ=    1.2544    3.7702   -7.0895 Q=    0.4100 A=    0.0000 R=    0.0000 C=    0.0000
 XYZ=    1.3459    2.2636   -7.7130 Q=    0.4100 A=    0.0000 R=    0.0000 C=    0.0000
 XYZ=   -0.4736    4.1683    7.4163 Q=   -0.8200 A=    0.0000 R=    0.0000 C=    0.0000
 XYZ=   -0.0043    4.5185    8.2269 Q=    0.4100 A=    0.0000 R=    0.0000 C=    0.0000
 XYZ=   -0.2160    3.2133    7.2686 Q=    0.4100 A=    0.0000 R=    0.0000 C=    0.0000
 XYZ=    4.8699   -0.6699   -7.5573 Q=   -0.8200 A=    0.0000 R=    0.0000 C=    0.0000
 XYZ=    5.2782   -0.6009   -6.6470 Q=    0.4100 A=    0.0000 R=    0.0000 C=    0.0000
 XYZ=    4.1371   -1.3503   -7.5431 Q=    0.4100 A=    0.0000 R=    0.0000 C=    0.0000
 XYZ=   -1.0422   -8.1428    0.6682 Q=   -0.8200 A=    0.0000 R=    0.0000 C=    0.0000
 XYZ=   -0.1854   -7.6838    0.4332 Q=    0.4100 A=    0.0000 R=    0.0000 C=    0.0000
 XYZ=   -1.0835   -9.0285    0.2059 Q=    0.4100 A=    0.0000 R=    0.0000 C=    0.0000
 XYZ=    2.0558    4.7792   -6.3002 Q=   -0.8200 A=    0.0000 R=    0.0000 C=    0.0000
 XYZ=    2.7756    4.4009   -5.7181 Q=    0.4100 A=    0.0000 R=    0.0000 C=    0.0000
 XYZ=    2.2950    5.7147   -6.5605 Q=    0.4100 A=    0.0000 R=    0.0000 C=    0.0000
 XYZ=   -4.6320    6.4813   -4.2726 Q=   -0.8200 A=    0.0000 R=    0.0000 C=    0.0000
 XYZ=   -3.9167    6.3336   -3.5896 Q=    0.4100 A=    0.0000 R=    0.0000 C=    0.0000
 XYZ=   -5.1206    5.6239   -4.4342 Q=    0.4100 A=    0.0000 R=    0.0000 C=    0.0000
 XYZ=    1.9542    1.1236   -7.9934 Q=   -0.8200 A=    0.0000 R=    0.0000 C=    0.0000
 XYZ=    2.9250    1.3029   -7.8337 Q=    0.4100 A=    0.0000 R=    0.0000 C=    0.0000
 XYZ=    1.7887    1.0358   -8.9757 Q=    0.4100 A=    0.0000 R=    0.0000 C=    0.0000
 XYZ=    7.4342   -4.6866    1.6204 Q=   -0.8200 A=    0.0000 R=    0.0000 C=    0.0000
 XYZ=    6.7571   -4.3058    2.2501 Q=    0.4100 A=    0.0000 R=    0.0000 C=    0.0000
 XYZ=    7.0392   -4.7484    0.7038 Q=    0.4100 A=    0.0000 R=    0.0000 C=    0.0000
 XYZ=    5.0336   -7.4486   -0.7189 Q=   -0.8200 A=    0.0000 R=    0.0000 C=    0.0000
 XYZ=    5.6826   -7.8971   -0.1044 Q=    0.4100 A=    0.0000 R=    0.0000 C=    0.0000
 XYZ=    5.5293   -6.8490   -1.3473 Q=    0.4100 A=    0.0000 R=    0.0000 C=    0.0000
 XYZ=   -7.7576   -2.3618    0.9489 Q=   -0.8200 A=    0.0000 R=    0.0000 C=    0.0000
 XYZ=   -6.8856   -2.1068    1.3667 Q=    0.4100 A=    0.0000 R=    0.0000 C=    0.0000
 XYZ=   -7.8568   -3.3567    0.9653 Q=    0.4100 A=    0.0000 R=    0.0000 C=    0.0000
 XYZ=    0.3572   -4.2193    6.7828 Q=   -0.8200 A=    0.0000 R=    0.0000 C=    0.0000
 XYZ=    1.2488   -3.8109    6.5873 Q=    0.4100 A=    0.0000 R=    0.0000 C=    0.0000
 XYZ=   -0.3529   -3.5187    6.7126 Q=    0.4100 A=    0.0000 R=    0.0000 C=    0.0000
 XYZ=   -3.0330   -5.1115    5.0888 Q=   -0.8200 A=    0.0000 R=    0.0000 C=    0.0000
 XYZ=   -2.2674   -5.1509    4.4465 Q=    0.4100 A=    0.0000 R=    0.0000 C=    0.0000
 XYZ=   -3.0887   -5.9726    5.5942 Q=    0.4100 A=    0.0000 R=    0.0000 C=    0.0000
 XYZ=   -2.4336    4.7325   -7.2923 Q=   -0.8200 A=    0.0000 R=    0.0000 C=    0.0000
 XYZ=   -2.8366    4.4904   -6.4097 Q=    0.4100 A=    0.0000 R=    0.0000 C=    0.0000
 XYZ=   -3.0889    5.2718   -7.8212 Q=    0.4100 A=    0.0000 R=    0.0000 C=    0.0000
 XYZ=   -7.0353    4.9862   -0.6140 Q=   -0.8200 A=    0.0000 R=    0.0000 C=    0.0000
 XYZ=   -6.8698    5.9715   -0.6557 Q=    0.4100 A=    0.0000 R=    0.0000 C=    0.0000
 XYZ=   -7.9305    4.7816   -1.0100 Q=    0.4100 A=    0.0000 R=    0.0000 C=    0.0000
 XYZ=   -2.8898    8.2687   -1.2275 Q=   -0.8200 A=    0.0000 R=    0.0000 C=    0.0000
 XYZ=   -2.0831    8.8071   -1.4712 Q=    0.4100 A=    0.0000 R=    0.0000 C=    0.0000
 XYZ=   -2.8230    7.9822   -0.2717 Q=    0.4100 A=    0.0000 R=    0.0000 C=    0.0000
 XYZ=   -2.6270    6.1372    4.9709 Q=   -0.8200 A=    0.0000 R=    0.0000 C=    0.0000
 XYZ=   -3.3790    6.7612    4.7584 Q=    0.4100 A=    0.0000 R=    0.0000 C=    0.0000
 XYZ=   -2.9953    5.2887    5.3510 Q=    0.4100 A=    0.0000 R=    0.0000 C=    0.0000
 XYZ=    0.1910   -5.8948    5.1654 Q=   -0.8200 A=    0.0000 R=    0.0000 C=    0.0000
 XYZ=   -0.4943   -6.5910    5.3794 Q=    0.4100 A=    0.0000 R=    0.0000 C=    0.0000
 XYZ=    0.2926   -5.2765    5.9448 Q=    0.4100 A=    0.0000 R=    0.0000 C=    0.0000
 XYZ=   -2.1267   -6.9339    2.1868 Q=   -0.8200 A=    0.0000 R=    0.0000 C=    0.0000
 XYZ=   -1.6788   -7.3338    1.3871 Q=    0.4100 A=    0.0000 R=    0.0000 C=    0.0000
 XYZ=   -3.1189   -6.9820    2.0718 Q=    0.4100 A=    0.0000 R=    0.0000 C=    0.0000
 XYZ=   -7.2354    1.1507    4.5729 Q=   -0.8200 A=    0.0000 R=    0.0000 C=    0.0000
 XYZ=   -6.3708    0.6515    4.5150 Q=    0.4100 A=    0.0000 R=    0.0000 C=    0.0000
 XYZ=   -7.8744    0.6444    5.1520 Q=    0.4100 A=    0.0000 R=    0.0000 C=    0.0000
 XYZ=    3.2407    6.6030   -0.2227 Q=   -0.8200 A=    0.0000 R=    0.0000 C=    0.0000
 XYZ=    2.4387    7.1685   -0.0304 Q=    0.4100 A=    0.0000 R=    0.0000 C=    0.0000
 XYZ=    4.0033    6.8997    0.3520 Q=    0.4100 A=    0.0000 R=    0.0000 C=    0.0000
 XYZ=    8.8790   -1.9421   -3.0240 Q=   -0.8200 A=    0.0000 R=    0.0000 C=    0.0000
 XYZ=    8.1990   -1.6079   -2.3714 Q=    0.4100 A=    0.0000 R=    0.0000 C=    0.0000
 XYZ=    9.7235   -2.1688   -2.5387 Q=    0.4100 A=    0.0000 R=    0.0000 C=    0.0000
 XYZ=    2.6981   -1.0300    7.4766 Q=   -0.8200 A=    0.0000 R=    0.0000 C=    0.0000
 XYZ=    2.6476   -1.0250    8.4753 Q=    0.4100 A=    0.0000 R=    0.0000 C=    0.0000
 XYZ=    3.6547   -0.9720    7.1910 Q=    0.4100 A=    0.0000 R=    0.0000 C=    0.0000
 XYZ=    4.2969    4.1858   -5.1425 Q=   -0.8200 A=    0.0000 R=    0.0000 C=    0.0000
 XYZ=    5.0769    4.8096   -5.1915 Q=    0.4100 A=    0.0000 R=    0.0000 C=    0.0000
 XYZ=    4.4984    3.3585   -5.6670 Q=    0.4100 A=    0.0000 R=    0.0000 C=    0.0000
 XYZ=    7.9173    2.6338   -1.3791 Q=   -0.8200 A=    0.0000 R=    0.0000 C=    0.0000
 XYZ=    7.3945    1.8260   -1.1069 Q=    0.4100 A=    0.0000 R=    0.0000 C=    0.0000
 XYZ=    8.2853    3.0826   -0.5648 Q=    0.4100 A=    0.0000 R=    0.0000 C=    0.0000
 XYZ=   -2.4701   -1.7100    8.6122 Q=   -0.8200 A=    0.0000 R=    0.0000 C=    0.0000
 XYZ=   -2.0220   -1.9293    7.7455 Q=    0.4100 A=    0.0000 R=    0.0000 C=    0.0000
 XYZ=   -2.0917   -2.2849    9.3378 Q=    0.4100 A=    0.0000 R=    0.0000 C=    0.0000
 XYZ=   -0.8356    7.5058    4.6733 Q=   -0.8200 A=    0.0000 R=    0.0000 C=    0.0000
 XYZ=   -0.1127    7.0186    4.1834 Q=    0.4100 A=    0.0000 R=    0.0000 C=    0.0000
 XYZ=   -1.6215    6.8998    4.7966 Q=    0.4100 A=    0.0000 R=    0.0000 C=    0.0000
 XYZ=    7.3856    3.5427    2.4534 Q=   -0.8200 A=    0.0000 R=    0.0000 C=    0.0000
 XYZ=    7.6349    2.9906    3.2491 Q=    0.4100 A=    0.0000 R=    0.0000 C=    0.0000
 XYZ=    6.5143    3.2198    2.0836 Q=    0.4100 A=    0.0000 R=    0.0000 C=    0.0000
 XYZ=   -7.3124    2.7344   -4.9195 Q=   -0.8200 A=    0.0000 R=    0.0000 C=    0.0000
 XYZ=   -7.6034    2.9892   -5.8417 Q=    0.4100 A=    0.0000 R=    0.0000 C=    0.0000
 XYZ=   -6.6778    1.9633   -4.9713 Q=    0.4100 A=    0.0000 R=    0.0000 C=    0.0000
 XYZ=    4.8380   -1.1539    6.7984 Q=   -0.8200 A=    0.0000 R=    0.0000 C=    0.0000
 XYZ=    5.4626   -1.0028    7.5646 Q=    0.4100 A=    0.0000 R=    0.0000 C=    0.0000
 XYZ=    5.0381   -2.0373    6.3746 Q=    0.4100 A=    0.0000 R=    0.0000 C=    0.0000
 XYZ=   -6.8404    4.8765    3.1161 Q=   -0.8200 A=    0.0000 R=    0.0000 C=    0.0000
 XYZ=   -7.7359    5.3215    3.0995 Q=    0.4100 A=    0.0000 R=    0.0000 C=    0.0000
 XYZ=   -6.8025    4.2325    3.8802 Q=    0.4100 A=    0.0000 R=    0.0000 C=    0.0000
 XYZ=   -8.7430    1.1244    2.7438 Q=   -0.8200 A=    0.0000 R=    0.0000 C=    0.0000
 XYZ=   -8.3286    1.5190    1.9237 Q=    0.4100 A=    0.0000 R=    0.0000 C=    0.0000
 XYZ=   -8.0684    1.1053    3.4819 Q=    0.4100 A=    0.0000 R=    0.0000 C=    0.0000
 XYZ=   -8.4088   -0.8997   -0.8832 Q=   -0.8200 A=    0.0000 R=    0.0000 C=    0.0000
 XYZ=   -8.0277   -1.1604   -1.7703 Q=    0.4100 A=    0.0000 R=    0.0000 C=    0.0000
 XYZ=   -8.0278   -1.4889   -0.1706 Q=    0.4100 A=    0.0000 R=    0.0000 C=    0.0000
 XYZ=   -0.6278    9.1045   -1.3403 Q=   -0.8200 A=    0.0000 R=    0.0000 C=    0.0000
 XYZ=   -0.5335    9.0492   -2.3343 Q=    0.4100 A=    0.0000 R=    0.0000 C=    0.0000
 XYZ=    0.0395    8.4979   -0.9080 Q=    0.4100 A=    0.0000 R=    0.0000 C=    0.0000
 XYZ=   -2.7742    3.9057    7.7916 Q=   -0.8200 A=    0.0000 R=    0.0000 C=    0.0000
 XYZ=   -1.9228    4.2414    7.3883 Q=    0.4100 A=    0.0000 R=    0.0000 C=    0.0000
 XYZ=   -2.6096    3.0219    8.2297 Q=    0.4100 A=    0.0000 R=    0.0000 C=    0.0000
 XYZ=   -6.4982   -1.5714    6.2420 Q=   -0.8200 A=    0.0000 R=    0.0000 C=    0.0000
 XYZ=   -6.0349   -1.0418    5.5313 Q=    0.4100 A=    0.0000 R=    0.0000 C=    0.0000
 XYZ=   -5.8452   -1.8053    6.9623 Q=    0.4100 A=    0.0000 R=    0.0000 C=    0.0000
 XYZ=    8.6950   -2.0610    0.5721 Q=   -0.8200 A=    0.0000 R=    0.0000 C=    0.0000
 XYZ=    9.0481   -2.8441    1.0842 Q=    0.4100 A=    0.0000 R=    0.0000 C=    0.0000
 XYZ=    8.5066   -1.3080    1.2026 Q=    0.4100 A=    0.0000 R=    0.0000 C=    0.0000
 XYZ=   -2.6071   -1.6119   -9.5791 Q=   -0.8200 A=    0.0000 R=    0.0000 C=    0.0000
 XYZ=   -2.7925   -2.4615  -10.0728 Q=    0.4100 A=    0.0000 R=    0.0000 C=    0.0000
 XYZ=   -2.7880   -1.7463   -8.6048 Q=    0.4100 A=    0.0000 R=    0.0000 C=    0.0000
 XYZ=    6.6753   -6.8686    2.3671 Q=   -0.8200 A=    0.0000 R=    0.0000 C=    0.0000
 XYZ=    7.1988   -6.0709    2.0675 Q=    0.4100 A=    0.0000 R=    0.0000 C=    0.0000
 XYZ=    5.7280   -6.5994    2.5410 Q=    0.4100 A=    0.0000 R=    0.0000 C=    0.0000
 XYZ=   -6.7610   -4.5268   -4.7604 Q=   -0.8200 A=    0.0000 R=    0.0000 C=    0.0000
 XYZ=   -7.0253   -4.3102   -5.7003 Q=    0.4100 A=    0.0000 R=    0.0000 C=    0.0000
 XYZ=   -5.8331   -4.1952   -4.5903 Q=    0.4100 A=    0.0000 R=    0.0000 C=    0.0000
 XYZ=    2.7365   -6.4241   -8.2294 Q=   -0.8200 A=    0.0000 R=    0.0000 C=    0.0000
 XYZ=    3.2209   -5.9920   -8.9901 Q=    0.4100 A=    0.0000 R=    0.0000 C=    0.0000
 XYZ=    2.9228   -5.9198   -7.3862 Q=    0.4100 A=    0.0000 R=    0.0000 C=    0.0000
 XYZ=    6.0066    5.7008    2.5839 Q=   -0.8200 A=    0.0000 R=    0.0000 C=    0.0000
 XYZ=    5.2558    5.1964    3.0104 Q=    0.4100 A=    0.0000 R=    0.0000 C=    0.0000
 XYZ=    6.8287    5.1315    2.5765 Q=    0.4100 A=    0.0000 R=    0.0000 C=    0.0000
 XYZ=   -0.9072    4.1262   -9.0092 Q=   -0.8200 A=    0.0000 R=    0.0000 C=    0.0000
 XYZ=   -1.6977    4.2726   -8.4145 Q=    0.4100 A=    0.0000 R=    0.0000 C=    0.0000
 XYZ=   -0.1831    3.6674   -8.4942 Q=    0.4100 A=    0.0000 R=    0.0000 C=    0.0000
 XYZ=   -0.3060    8.8678   -3.5656 Q=   -0.8200 A=    0.0000 R=    0.0000 C=    0.0000
 XYZ=   -0.4357    9.3695   -4.4209 Q=    0.4100 A=    0.0000 R=    0.0000 C=    0.0000
 XYZ=   -0.6041    7.9209   -3.6862 Q=    0.4100 A=    0.0000 R=    0.0000 C=    0.0000
 XYZ=    2.9126   -2.1922   -9.8015 Q=   -0.8200 A=    0.0000 R=    0.0000 C=    0.0000
 XYZ=    3.0743   -2.2590   -8.8169 Q=    0.4100 A=    0.0000 R=    0.0000 C=    0.0000
 XYZ=    3.6837   -2.5957  -10.2940 Q=    0.4100 A=    0.0000 R=    0.0000 C=    0.0000
 XYZ=   -5.6849    5.8726    5.1064 Q=   -0.8200 A=    0.0000 R=    0.0000 C=    0.0000
 XYZ=   -6.4911    6.2649    5.5493 Q=    0.4100 A=    0.0000 R=    0.0000 C=    0.0000
 XYZ=   -5.9196    5.5914    4.1758 Q=    0.4100 A=    0.0000 R=    0.0000 C=    0.0000
 XYZ=    1.3044    2.2880    9.4792 Q=   -0.8200 A=    0.0000 R=    0.0000 C=    0.0000
 XYZ=    2.2538    2.4753    9.2269 Q=    0.4100 A=    0.0000 R=    0.0000 C=    0.0000
 XYZ=    0.8186    1.9097    8.6912 Q=    0.4100 A=    0.0000 R=    0.0000 C=    0.0000
 XYZ=    4.1098    1.6690   -7.8678 Q=   -0.8200 A=    0.0000 R=    0.0000 C=    0.0000
 XYZ=    4.7496    2.2356   -7.3485 Q=    0.4100 A=    0.0000 R=    0.0000 C=    0.0000
 XYZ=    4.4992    0.7566   -7.9939 Q=    0.4100 A=    0.0000 R=    0.0000 C=    0.0000
 XYZ=   -6.0338    1.3894   -7.7720 Q=   -0.8200 A=    0.0000 R=    0.0000 C=    0.0000
 XYZ=   -6.2528    0.6772   -8.4390 Q=    0.4100 A=    0.0000 R=    0.0000 C=    0.0000
 XYZ=   -6.1126    1.0159   -6.8477 Q=    0.4100 A=    0.0000 R=    0.0000 C=    0.0000
 XYZ=    8.0154   -3.9957   -6.2218 Q=   -0.8200 A=    0.0000 R=    0.0000 C=    0.0000
 XYZ=    7.6283   -3.4731   -5.4621 Q=    0.4100 A=    0.0000 R=    0.0000 C=    0.0000
 XYZ=    8.2873   -3.3696   -6.9526 Q=    0.4100 A=    0.0000 R=    0.0000 C=    0.0000
 XYZ=   -4.8722   -5.7955    3.8619 Q=   -0.8200 A=    0.0000 R=    0.0000 C=    0.0000
 XYZ=   -4.0814   -5.4515    4.3683 Q=    0.4100 A=    0.0000 R=    0.0000 C=    0.0000
 XYZ=   -4.5697   -6.1683    2.9847 Q=    0.4100 A=    0.0000 R=    0.0000 C=    0.0000
 XYZ=    7.1990    1.7776   -5.1886 Q=   -0.8200 A=    0.0000 R=    0.0000 C=    0.0000
 XYZ=    7.2029    2.5653   -4.5725 Q=    0.4100 A=    0.0000 R=    0.0000 C=    0.0000
 XYZ=    7.7877    1.0602   -4.8162 Q=    0.4100 A=    0.0000 R=    0.0000 C=    0.0000
 XYZ=    7.6533    2.6179    4.6304 Q=   -0.8200 A=    0.0000 R=    0.0000 C=    0.0000
 XYZ=    7.0941    1.9108    4.1975 Q=    0.4100 A=    0.0000 R=    0.0000 C=    0.0000
 XYZ=    8.4743    2.2011    5.0206 Q=    0.4100 A=    0.0000 R=    0.0000 C=    0.0000
 XYZ=   -9.3036    4.0030    2.0904 Q=   -0.8200 A=    0.0000 R=    0.0000 C=    0.0000
 XYZ=   -8.6216    3.3219    1.8243 Q=    0.4100 A=    0.0000 R=    0.0000 C=    0.0000
 XYZ=  -10.0733    3.5470    2.5373 Q=    0.4100 A=    0.0000 R=    0.0000 C=    0.0000
 XYZ=   -3.8891    0.1349    8.7356 Q=   -0.8200 A=    0.0000 R=    0.0000 C=    0.0000
 XYZ=   -3.1532   -0.5164    8.5504 Q=    0.4100 A=    0.0000 R=    0.0000 C=    0.0000
 XYZ=   -4.5120   -0.2508    9.4162 Q=    0.4100 A=    0.0000 R=    0.0000 C=    0.0000
 XYZ=   -5.0809    8.8820   -1.6626 Q=   -0.8200 A=    0.0000 R=    0.0000 C=    0.0000
 XYZ=   -5.5033    9.4991   -0.9987 Q=    0.4100 A=    0.0000 R=    0.0000 C=    0.0000
 XYZ=   -4.1580    8.6462   -1.3583 Q=    0.4100 A=    0.0000 R=    0.0000 C=    0.0000
 XYZ=    8.7114    0.1602   -4.0929 Q=   -0.8200 A=    0.0000 R=    0.0000 C=    0.0000
 XYZ=    9.2578    0.8704   -3.6489 Q=    0.4100 A=    0.0000 R=    0.0000 C=    0.0000
 XYZ=    8.8733   -0.7167   -3.6402 Q=    0.4100 A=    0.0000 R=    0.0000 C=    0.0000
 XYZ=    9.6032    1.2022    0.9039 Q=   -0.8200 A=    0.0000 R=    0.0000 C=    0.0000
 XYZ=    8.8578    0.6389    1.2604 Q=    0.4100 A=    0.0000 R=    0.0000 C=    0.0000
 XYZ=    9.2746    2.1349    0.7557 Q=    0.4100 A=    0.0000 R=    0.0000 C=    0.0000
 XYZ=    6.4683    4.4416   -2.0245 Q=   -0.8200 A=    0.0000 R=    0.0000 C=    0.0000
 XYZ=    7.0824    3.7897   -1.5795 Q=    0.4100 A=    0.0000 R=    0.0000 C=    0.0000
 XYZ=    6.6160    5.3534   -1.6415 Q=    0.4100 A=    0.0000 R=    0.0000 C=    0.0000
 XYZ=   -4.4524   -6.7855    1.7237 Q=   -0.8200 A=    0.0000 R=    0.0000 C=    0.0000
 XYZ=   -4.5218   -7.7650    1.5344 Q=    0.4100 A=    0.0000 R=    0.0000 C=    0.0000
 XYZ=   -4.8599   -6.2706    0.9695 Q=    0.4100 A=    0.0000 R=    0.0000 C=    0.0000
 XYZ=   -1.6520   -8.8466    3.6196 Q=   -0.8200 A=    0.0000 R=    0.0000 C=    0.0000
 XYZ=   -0.9818   -9.4941    3.2569 Q=    0.4100 A=    0.0000 R=    0.0000 C=    0.0000
 XYZ=   -1.7800   -8.0992    2.9676 Q=    0.4100 A=    0.0000 R=    0.0000 C=    0.0000
 XYZ=   -6.4226   -4.1176    3.3258 Q=   -0.8200 A=    0.0000 R=    0.0000 C=    0.0000
 XYZ=   -6.9756   -3.8625    4.1190 Q=    0.4100 A=    0.0000 R=    0.0000 C=    0.0000
 XYZ=   -5.7627   -4.8203    3.5917 Q=    0.4100 A=    0.0000 R=    0.0000 C=    0.0000
 XYZ=    5.4283   -4.4928   -7.7825 Q=   -0.8200 A=    0.0000 R=    0.0000 C=    0.0000
 XYZ=    6.0955   -5.1737   -7.4801 Q=    0.4100 A=    0.0000 R=    0.0000 C=    0.0000
 XYZ=    4.9084   -4.8562   -8.5556 Q=    0.4100 A=    0.0000 R=    0.0000 C=    0.0000
 XYZ=   -6.7171    7.2811   -0.8306 Q=   -0.8200 A=    0.0000 R=    0.0000 C=    0.0000
 XYZ=   -6.0982    7.9240   -1.2819 Q=    0.4100 A=    0.0000 R=    0.0000 C=    0.0000
 XYZ=   -7.2465    7.7627   -0.1321 Q=    0.4100 A=    0.0000 R=    0.0000 C=    0.0000
 XYZ=   -4.3445    2.9768   -8.2720 Q=   -0.8200 A=    0.0000 R=    0.0000 C=    0.0000
 XYZ=   -5.1713    2.4149   -8.2443 Q=    0.4100 A=    0.0000 R=    0.0000 C=    0.0000
 XYZ=   -4.5556    3.8969   -7.9418 Q=    0.4100 A=    0.0000 R=    0.0000 C=    0.0000
 XYZ=   -8.8737    2.3948   -2.9182 Q=   -0.8200 A=    0.0000 R=    0.0000 C=    0.0000
 XYZ=   -8.3959    2.4167   -3.7964 Q=    0.4100 A=    0.0000 R=    0.0000 C=    0.0000
 XYZ=   -9.8611    2.3805   -3.0762 Q=    0.4100 A=    0.0000 R=    0.0000 C=    0.0000
 XYZ=    4.7962    1.5873    7.4820 Q=   -0.8200 A=    0.0000 R=    0.0000 C=    0.0000
 XYZ=    5.4624    2.0994    6.9398 Q=    0.4100 A=    0.0000 R=    0.0000 C=    0.0000
 XYZ=    4.3778    2.1952    8.1569 Q=    0.4100 A=    0.0000 R=    0.0000 C=    0.0000
 XYZ=   -2.1978    1.9621    9.1557 Q=   -0.8200 A=    0.0000 R=    0.0000 C=    0.0000
 XYZ=   -2.9871    1.4171    8.8728 Q=    0.4100 A=    0.0000 R=    0.0000 C=    0.0000
 XYZ=   -2.0927    1.9059   10.1486 Q=    0.4100 A=    0.0000 R=    0.0000 C=    0.0000
 XYZ=    6.7681   -6.9215   -4.3469 Q=   -0.8200 A=    0.0000 R=    0.0000 C=    0.0000
 XYZ=    6.6332   -6.5944   -5.2822 Q=    0.4100 A=    0.0000 R=    0.0000 C=    0.0000
 XYZ=    7.5936   -7.4845   -4.3065 Q=    0.4100 A=    0.0000 R=    0.0000 C=    0.0000
 XYZ=    5.8802    2.8397   -6.8586 Q=   -0.8200 A=    0.0000 R=    0.0000 C=    0.0000
 XYZ=    6.2491    3.7318   -7.1194 Q=    0.4100 A=    0.0000 R=    0.0000 C=    0.0000
 XYZ=    6.5384    2.3648   -6.2743 Q=    0.4100 A=    0.0000 R=    0.0000 C=    0.0000
 XYZ=   -1.2849    9.1817    3.1533 Q=   -0.8200 A=    0.0000 R=    0.0000 C=    0.0000
 XYZ=   -2.2754    9.2377    3.0277 Q=    0.4100 A=    0.0000 R=    0.0000 C=    0.0000
 XYZ=   -1.0741    8.4749    3.8287 Q=    0.4100 A=    0.0000 R=    0.0000 C=    0.0000
 XYZ=    5.9839   -2.3784   -9.0020 Q=   -0.8200 A=    0.0000 R=    0.0000 C=    0.0000
 XYZ=    5.5252   -1.6577   -8.4821 Q=    0.4100 A=    0.0000 R=    0.0000 C=    0.0000
 XYZ=    5.8206   -3.2617   -8.5625 Q=    0.4100 A=    0.0000 R=    0.0000 C=    0.0000
 XYZ=    9.6666   -3.8055    1.7615 Q=   -0.8200 A=    0.0000 R=    0.0000 C=    0.0000
 XYZ=    8.7502   -4.2000    1.6940 Q=    0.4100 A=    0.0000 R=    0.0000 C=    0.0000
 XYZ=   10.2923   -4.3124    1.1686 Q=    0.4100 A=    0.0000 R=    0.0000 C=    0.0000
 XYZ=   -9.3195   -1.2361    2.4452 Q=   -0.8200 A=    0.0000 R=    0.0000 C=    0.0000
 XYZ=   -8.6713   -1.6975    1.8394 Q=    0.4100 A=    0.0000 R=    0.0000 C=    0.0000
 XYZ=   -8.9774   -0.3227    2.6657 Q=    0.4100 A=    0.0000 R=    0.0000 C=    0.0000
 XYZ=   -4.5510    5.4599    7.2792 Q=   -0.8200 A=    0.0000 R=    0.0000 C=    0.0000
 XYZ=   -4.8481    5.5644    6.3301 Q=    0.4100 A=    0.0000 R=    0.0000 C=    0.0000
 XYZ=   -3.8854    4.7160    7.3402 Q=    0.4100 A=    0.0000 R=    0.0000 C=    0.0000
 XYZ=   -7.9910    3.3622    5.3662 Q=   -0.8200 A=    0.0000 R=    0.0000 C=    0.0000
 XYZ=   -7.8676    3.2828    6.3554 Q=    0.4100 A=    0.0000 R=    0.0000 C=    0.0000
 XYZ=   -7.7521    2.4947    4.9299 Q=    0.4100 A=    0.0000 R=    0.0000 C=    0.0000
 XYZ=   -4.3410   -2.9941    7.7177 Q=   -0.8200 A=    0.0000 R=    0.0000 C=    0.0000
 XYZ=   -3.6450   -2.4653    8.2035 Q=    0.4100 A=    0.0000 R=    0.0000 C=    0.0000
 XYZ=   -4.4145   -3.9036    8.1270 Q=    0.4100 A=    0.0000 R=    0.0000 C=    0.0000
 XYZ=   -2.2594   -6.5242   -7.9686 Q=   -0.8200 A=    0.0000 R=    0.0000 C=    0.0000
 XYZ=   -1.4893   -6.7214   -7.3619 Q=    0.4100 A=    0.0000 R=    0.0000 C=    0.0000
 XYZ=   -3.1170   -6.7208   -7.4933 Q=    0.4100 A=    0.0000 R=    0.0000 C=    0.0000
 XYZ=    5.1796    7.0926    0.8800 Q=   -0.8200 A=    0.0000 R=    0.0000 C=    0.0000
 XYZ=    5.6331    7.9806    0.9568 Q=    0.4100 A=    0.0000 R=    0.0000 C=    0.0000
 XYZ=    5.4105    6.5307    1.6744 Q=    0.4100 A=    0.0000 R=    0.0000 C=    0.0000
 XYZ=   -9.0752    4.5095   -1.9780 Q=   -0.8200 A=    0.0000 R=    0.0000 C=    0.0000
 XYZ=   -9.1422    5.2241   -2.6743 Q=    0.4100 A=    0.0000 R=    0.0000 C=    0.0000
 XYZ=   -9.0346    3.6143   -2.4220 Q=    0.4100 A=    0.0000 R=    0.0000 C=    0.0000
 XYZ=    0.3343   -6.1381   -8.5861 Q=   -0.8200 A=    0.0000 R=    0.0000 C=    0.0000
 XYZ=    0.0938   -6.8590   -7.9360 Q=    0.4100 A=    0.0000 R=    0.0000 C=    0.0000
 XYZ=    1.3291   -6.0873   -8.6744 Q=    0.4100 A=    0.0000 R=    0.0000 C=    0.0000
 XYZ=   10.2776   -2.0971   -1.0873 Q=   -0.8200 A=    0.0000 R=    0.0000 C=    0.0000
 XYZ=   11.1067   -2.5636   -0.7788 Q=    0.4100 A=    0.0000 R=    0.0000 C=    0.0000
 XYZ=    9.5874   -2.1313   -0.3645 Q=    0.4100 A=    0.0000 R=    0.0000 C=    0.0000
 XYZ=   -0.3158   -4.8918    8.9132 Q=   -0.8200 A=    0.0000 R=    0.0000 C=    0.0000
 XYZ=   -0.0854   -4.6224    7.9781 Q=    0.4100 A=    0.0000 R=    0.0000 C=    0.0000
 XYZ=    0.5227   -5.1046    9.4149 Q=    0.4100 A=    0.0000 R=    0.0000 C=    0.0000
 XYZ=    8.6841    3.4269    0.5627 Q=   -0.8200 A=    0.0000 R=    0.0000 C=    0.0000
 XYZ=    8.1134    3.4512    1.3836 Q=    0.4100 A=    0.0000 R=    0.0000 C=    0.0000
 XYZ=    9.4670    4.0373    0.6829 Q=    0.4100 A=    0.0000 R=    0.0000 C=    0.0000
 XYZ=   -4.5240    7.7777    4.5734 Q=   -0.8200 A=    0.0000 R=    0.0000 C=    0.0000
 XYZ=   -5.0732    7.0194    4.9246 Q=    0.4100 A=    0.0000 R=    0.0000 C=    0.0000
 XYZ=   -5.0100    8.6387    4.7231 Q=    0.4100 A=    0.0000 R=    0.0000 C=    0.0000
 XYZ=   -3.7313    9.0700    2.7980 Q=   -0.8200 A=    0.0000 R=    0.0000 C=    0.0000
 XYZ=   -4.0995    8.5179    3.5461 Q=    0.4100 A=    0.0000 R=    0.0000 C=    0.0000
 XYZ=   -4.3261    9.8586    2.6418 Q=    0.4100 A=    0.0000 R=    0.0000 C=    0.0000
 XYZ=    0.9649    0.8910  -10.4153 Q=   -0.8200 A=    0.0000 R=    0.0000 C=    0.0000
 XYZ=    0.5186    1.7067  -10.7834 Q=    0.4100 A=    0.0000 R=    0.0000 C=    0.0000
 XYZ=    0.3034    0.1425  -10.3664 Q=    0.4100 A=    0.0000 R=    0.0000 C=    0.0000
 XYZ=   -0.6072   -1.1234  -10.8031 Q=   -0.8200 A=    0.0000 R=    0.0000 C=    0.0000
 XYZ=   -0.1214   -1.9908  -10.9109 Q=    0.4100 A=    0.0000 R=    0.0000 C=    0.0000
 XYZ=   -1.4260   -1.2668  -10.2472 Q=    0.4100 A=    0.0000 R=    0.0000 C=    0.0000
 XYZ=    7.5207    4.1978   -4.2849 Q=   -0.8200 A=    0.0000 R=    0.0000 C=    0.0000
 XYZ=    7.0750    4.3104   -3.3968 Q=    0.4100 A=    0.0000 R=    0.0000 C=    0.0000
 XYZ=    8.5105    4.1375   -4.1558 Q=    0.4100 A=    0.0000 R=    0.0000 C=    0.0000
 XYZ=   -4.9933    8.8189   -4.2048 Q=   -0.8200 A=    0.0000 R=    0.0000 C=    0.0000
 XYZ=   -5.1380    8.9561   -3.2249 Q=    0.4100 A=    0.0000 R=    0.0000 C=    0.0000
 XYZ=   -4.8580    7.8453   -4.3885 Q=    0.4100 A=    0.0000 R=    0.0000 C=    0.0000
 XYZ=   -0.5281   -7.9683   -6.9549 Q=   -0.8200 A=    0.0000 R=    0.0000 C=    0.0000
 XYZ=   -1.1272   -8.7498   -6.7807 Q=    0.4100 A=    0.0000 R=    0.0000 C=    0.0000
 XYZ=    0.3060   -8.2823   -7.4085 Q=    0.4100 A=    0.0000 R=    0.0000 C=    0.0000
 XYZ=    9.7211    1.7951   -2.8385 Q=   -0.8200 A=    0.0000 R=    0.0000 C=    0.0000
 XYZ=    8.8879    2.1877   -2.4490 Q=    0.4100 A=    0.0000 R=    0.0000 C=    0.0000
 XYZ=   10.2372    1.3287   -2.1201 Q=    0.4100 A=    0.0000 R=    0.0000 C=    0.0000
 XYZ=   -7.4902   -4.7334    1.3316 Q=   -0.8200 A=    0.0000 R=    0.0000 C=    0.0000
 XYZ=   -6.9242   -5.3954    0.8401 Q=    0.4100 A=    0.0000 R=    0.0000 C=    0.0000
 XYZ=   -7.0881   -4.5527    2.2292 Q=    0.4100 A=    0.0000 R=    0.0000 C=    0.0000
 XYZ=    4.6988    4.9945    6.7008 Q=   -0.8200 A=    0.0000 R=    0.0000 C=    0.0000
 XYZ=    5.1812    5.8689    6.7544 Q=    0.4100 A=    0.0000 R=    0.0000 C=    0.0000
 XYZ=    5.3439    4.2476    6.8620 Q=    0.4100 A=    0.0000 R=    0.0000 C=    0.0000
 XYZ=   -6.2518   -6.2744    0.0421 Q=   -0.8200 A=    0.0000 R=    0.0000 C=    0.0000
 XYZ=   -6.3648   -6.0328   -0.9217 Q=    0.4100 A=    0.0000 R=    0.0000 C=    0.0000
 XYZ=   -6.2804   -7.2690    0.1420 Q=    0.4100 A=    0.0000 R=    0.0000 C=    0.0000
 XYZ=    7.0273   -8.3392    0.3231 Q=   -0.8200 A=    0.0000 R=    0.0000 C=    0.0000
 XYZ=    6.8362   -7.7911    1.1374 Q=    0.4100 A=    0.0000 R=    0.0000 C=    0.0000
 XYZ=    7.3792   -9.2338    0.5985 Q=    0.4100 A=    0.0000 R=    0.0000 C=    0.0000
 XYZ=    7.0231   -6.0460   -6.7405 Q=   -0.8200 A=    0.0000 R=    0.0000 C=    0.0000
 XYZ=    7.4815   -5.2138   -6.4287 Q=    0.4100 A=    0.0000 R=    0.0000 C=    0.0000
 XYZ=    7.6583   -6.5915   -7.2873 Q=    0.4100 A=    0.0000 R=    0.0000 C=    0.0000
 XYZ=   -3.6058    0.1137  -10.7632 Q=   -0.8200 A=    0.0000 R=    0.0000 C=    0.0000
 XYZ=   -3.2184   -0.5228  -10.0963 Q=    0.4100 A=    0.0000 R=    0.0000 C=    0.0000
 XYZ=   -4.5160   -0.2001  -11.0337 Q=    0.4100 A=    0.0000 R=    0.0000 C=    0.0000
 XYZ=  -10.6712   -0.4222   -0.7664 Q=   -0.8200 A=    0.0000 R=    0.0000 C=    0.0000
 XYZ=  -10.7278    0.5683   -0.8927 Q=    0.4100 A=    0.0000 R=    0.0000 C=    0.0000
 XYZ=   -9.7191   -0.7154   -0.8544 Q=    0.4100 A=    0.0000 R=    0.0000 C=    0.0000
 XYZ=   -1.2139   -7.5966    5.6288 Q=   -0.8200 A=    0.0000 R=    0.0000 C=    0.0000
 XYZ=   -1.9864   -7.5272    6.2601 Q=    0.4100 A=    0.0000 R=    0.0000 C=    0.0000
 XYZ=   -1.4570   -8.2007    4.8698 Q=    0.4100 A=    0.0000 R=    0.0000 C=    0.0000
 XYZ=    6.3422    2.9967    6.5498 Q=   -0.8200 A=    0.0000 R=    0.0000 C=    0.0000
 XYZ=    6.8427    2.9541    5.6851 Q=    0.4100 A=    0.0000 R=    0.0000 C=    0.0000
 XYZ=    6.9913    3.0626    7.3077 Q=    0.4100 A=    0.0000 R=    0.0000 C=    0.0000
 XYZ=    0.8373   -2.9476  -10.7517 Q=   -0.8200 A=    0.0000 R=    0.0000 C=    0.0000
 XYZ=    1.6189   -2.7705  -10.1536 Q=    0.4100 A=    0.0000 R=    0.0000 C=    0.0000
 XYZ=    1.0596   -2.6621  -11.6840 Q=    0.4100 A=    0.0000 R=    0.0000 C=    0.0000
 XYZ=   -7.0497   -6.0510   -2.9060 Q=   -0.8200 A=    0.0000 R=    0.0000 C=    0.0000
 XYZ=   -7.9962   -6.1269   -2.5919 Q=    0.4100 A=    0.0000 R=    0.0000 C=    0.0000
 XYZ=   -6.9949   -5.3721   -3.6382 Q=    0.4100 A=    0.0000 R=    0.0000 C=    0.0000
 XYZ=   -3.9204    2.4701  -10.4654 Q=   -0.8200 A=    0.0000 R=    0.0000 C=    0.0000
 XYZ=   -4.0329    2.6535   -9.4888 Q=    0.4100 A=    0.0000 R=    0.0000 C=    0.0000
 XYZ=   -3.8128    1.4864  -10.6095 Q=    0.4100 A=    0.0000 R=    0.0000 C=    0.0000
 XYZ=   -7.6341   -3.5480    5.3168 Q=   -0.8200 A=    0.0000 R=    0.0000 C=    0.0000
 XYZ=   -8.4875   -3.0997    5.0508 Q=    0.4100 A=    0.0000 R=    0.0000 C=    0.0000
 XYZ=   -7.0378   -2.8866    5.7718 Q=    0.4100 A=    0.0000 R=    0.0000 C=    0.0000
 XYZ=    5.9996   -0.0144    8.5794 Q=   -0.8200 A=    0.0000 R=    0.0000 C=    0.0000
 XYZ=    5.4285    0.6235    8.0625 Q=    0.4100 A=    0.0000 R=    0.0000 C=    0.0000
 XYZ=    6.7487    0.4859    9.0138 Q=    0.4100 A=    0.0000 R=    0.0000 C=    0.0000
 XYZ=   -0.6432   -4.7028  -10.2597 Q=   -0.8200 A=    0.0000 R=    0.0000 C=    0.0000
 XYZ=    0.0608   -4.0395  -10.5136 Q=    0.4100 A=    0.0000 R=    0.0000 C=    0.0000
 XYZ=   -0.3508   -5.2038   -9.4451 Q=    0.4100 A=    0.0000 R=    0.0000 C=    0.0000
 XYZ=    9.1952   -5.7004   -1.4621 Q=   -0.8200 A=    0.0000 R=    0.0000 C=    0.0000
 XYZ=    9.5777   -5.4478   -2.3509 Q=    0.4100 A=    0.0000 R=    0.0000 C=    0.0000
 XYZ=    9.1721   -6.6968   -1.3802 Q=    0.4100 A=    0.0000 R=    0.0000 C=    0.0000
 XYZ=   -0.4039   11.0931   -0.0810 Q=   -0.8200 A=    0.0000 R=    0.0000 C=    0.0000
 XYZ=    0.4352   11.5471   -0.3809 Q=    0.4100 A=    0.0000 R=    0.0000 C=    0.0000
 XYZ=   -0.5052   10.2251   -0.5671 Q=    0.4100 A=    0.0000 R=    0.0000 C=    0.0000
 XYZ=   -8.4643   -0.5020    5.7763 Q=   -0.8200 A=    0.0000 R=    0.0000 C=    0.0000
 XYZ=   -8.9233   -1.1329    5.1507 Q=    0.4100 A=    0.0000 R=    0.0000 C=    0.0000
 XYZ=   -7.6457   -0.9390    6.1491 Q=    0.4100 A=    0.0000 R=    0.0000 C=    0.0000
 XYZ=    1.4715   -8.3775   -8.1040 Q=   -0.8200 A=    0.0000 R=    0.0000 C=    0.0000
 XYZ=    2.0665   -7.5782   -8.1886 Q=    0.4100 A=    0.0000 R=    0.0000 C=    0.0000
 XYZ=    2.0309   -9.1998   -7.9994 Q=    0.4100 A=    0.0000 R=    0.0000 C=    0.0000
 XYZ=    0.3559    4.4492    9.5383 Q=   -0.8200 A=    0.0000 R=    0.0000 C=    0.0000
 XYZ=   -0.4238    4.4843   10.1635 Q=    0.4100 A=    0.0000 R=    0.0000 C=    0.0000
 XYZ=    0.8421    3.5838    9.6601 Q=    0.4100 A=    0.0000 R=    0.0000 C=    0.0000
 XYZ=   -7.4446    3.3415   -7.2020 Q=   -0.8200 A=    0.0000 R=    0.0000 C=    0.0000
 XYZ=   -7.2350    4.0840   -7.8382 Q=    0.4100 A=    0.0000 R=    0.0000 C=    0.0000
 XYZ=   -6.9752    2.5087   -7.4955 Q=    0.4100 A=    0.0000 R=    0.0000 C=    0.0000
 XYZ=   -0.0036    3.0511  -11.0157 Q=   -0.8200 A=    0.0000 R=    0.0000 C=    0.0000
 XYZ=   -0.5868    3.4139  -10.2889 Q=    0.4100 A=    0.0000 R=    0.0000 C=    0.0000
 XYZ=    0.9399    3.3458  -10.8642 Q=    0.4100 A=    0.0000 R=    0.0000 C=    0.0000
 XYZ=  -10.6270    3.7552    0.0495 Q=   -0.8200 A=    0.0000 R=    0.0000 C=    0.0000
 XYZ=  -10.3075    4.3885   -0.6554 Q=    0.4100 A=    0.0000 R=    0.0000 C=    0.0000
 XYZ=  -10.0458    3.8370    0.8592 Q=    0.4100 A=    0.0000 R=    0.0000 C=    0.0000
 XYZ=   -3.5442    4.9002    9.8139 Q=   -0.8200 A=    0.0000 R=    0.0000 C=    0.0000
 XYZ=   -3.7663    5.8469    9.5806 Q=    0.4100 A=    0.0000 R=    0.0000 C=    0.0000
 XYZ=   -3.2740    4.4077    8.9865 Q=    0.4100 A=    0.0000 R=    0.0000 C=    0.0000
 XYZ=    3.8029    2.8441    9.1404 Q=   -0.8200 A=    0.0000 R=    0.0000 C=    0.0000
 XYZ=    4.3521    2.6929    9.9623 Q=    0.4100 A=    0.0000 R=    0.0000 C=    0.0000
 XYZ=    3.6775    3.8262    8.9994 Q=    0.4100 A=    0.0000 R=    0.0000 C=    0.0000
 XYZ=    6.0854    5.5180   -5.5028 Q=   -0.8200 A=    0.0000 R=    0.0000 C=    0.0000
 XYZ=    6.6908    4.9203   -4.9772 Q=    0.4100 A=    0.0000 R=    0.0000 C=    0.0000
 XYZ=    6.2706    5.4047   -6.4790 Q=    0.4100 A=    0.0000 R=    0.0000 C=    0.0000
 XYZ=    3.7783    5.3945    8.8529 Q=   -0.8200 A=    0.0000 R=    0.0000 C=    0.0000
 XYZ=    4.5265    5.9310    9.2434 Q=    0.4100 A=    0.0000 R=    0.0000 C=    0.0000
 XYZ=    3.8522    5.3962    7.8556 Q=    0.4100 A=    0.0000 R=    0.0000 C=    0.0000
 XYZ=    6.8409    6.5881   -1.3203 Q=   -0.8200 A=    0.0000 R=    0.0000 C=    0.0000
 XYZ=    6.4655    7.2902   -1.9255 Q=    0.4100 A=    0.0000 R=    0.0000 C=    0.0000
 XYZ=    6.3208    6.5714   -0.4664 Q=    0.4100 A=    0.0000 R=    0.0000 C=    0.0000
 XYZ=   -9.0374    6.0040    3.2261 Q=   -0.8200 A=    0.0000 R=    0.0000 C=    0.0000
 XYZ=   -9.2356    5.8341    4.1915 Q=    0.4100 A=    0.0000 R=    0.0000 C=    0.0000
 XYZ=   -9.2108    5.1722    2.6988 Q=    0.4100 A=    0.0000 R=    0.0000 C=    0.0000
 XYZ=  -11.0396    0.8423    2.7752 Q=   -0.8200 A=    0.0000 R=    0.0000 C=    0.0000
 XYZ=  -10.0482    0.9616    2.8305 Q=    0.4100 A=    0.0000 R=    0.0000 C=    0.0000
 XYZ=  -11.2525    0.1277    2.1088 Q=    0.4100 A=    0.0000 R=    0.0000 C=    0.0000
 XYZ=   -6.1434   -7.0187   -5.5079 Q=   -0.8200 A=    0.0000 R=    0.0000 C=    0.0000
 XYZ=   -6.3735   -6.1262   -5.1198 Q=    0.4100 A=    0.0000 R=    0.0000 C=    0.0000
 XYZ=   -6.4404   -7.7405   -4.8828 Q=    0.4100 A=    0.0000 R=    0.0000 C=    0.0000
 XYZ=   -1.0101    9.4850    6.1334 Q=   -0.8200 A=    0.0000 R=    0.0000 C=    0.0000
 XYZ=   -0.9042    8.6013    5.6776 Q=    0.4100 A=    0.0000 R=    0.0000 C=    0.0000
 XYZ=   -1.2782   10.1762    5.4623 Q=    0.4100 A=    0.0000 R=    0.0000 C=    0.0000
 XYZ=    8.6942   -8.0336   -1.4101 Q=   -0.8200 A=    0.0000 R=    0.0000 C=    0.0000
 XYZ=    7.9144   -8.0322   -0.7841 Q=    0.4100 A=    0.0000 R=    0.0000 C=    0.0000
 XYZ=    9.4573   -8.5254   -0.9906 Q=    0.4100 A=    0.0000 R=    0.0000 C=    0.0000
 XYZ=   -0.5969   11.0920    2.2027 Q=   -0.8200 A=    0.0000 R=    0.0000 C=    0.0000
 XYZ=   -0.8253   10.2030    2.5995 Q=    0.4100 A=    0.0000 R=    0.0000 C=    0.0000
 XYZ=   -0.5792   11.0173    1.2056 Q=    0.4100 A=    0.0000 R=    0.0000 C=    0.0000
 XYZ=    2.6370   -0.4428  -11.4278 Q=   -0.8200 A=    0.0000 R=    0.0000 C=    0.0000
 XYZ=    2.0079    0.2683  -11.1139 Q=    0.4100 A=    0.0000 R=    0.0000 C=    0.0000
 XYZ=    2.8810   -1.0348  -10.6596 Q=    0.4100 A=    0.0000 R=    0.0000 C=    0.0000
 XYZ=   -2.3293   -9.6291   -6.2738 Q=   -0.8200 A=    0.0000 R=    0.0000 C=    0.0000
 XYZ=   -2.6597   -8.7222   -6.0124 Q=    0.4100 A=    0.0000 R=    0.0000 C=    0.0000
 XYZ=   -2.7215   -9.8847   -7.1575 Q=    0.4100 A=    0.0000 R=    0.0000 C=    0.0000
 XYZ=   10.8255    0.5780   -1.0276 Q=   -0.8200 A=    0.0000 R=    0.0000 C=    0.0000
 XYZ=   10.6986   -0.3992   -1.1978 Q=    0.4100 A=    0.0000 R=    0.0000 C=    0.0000
 XYZ=   10.2838    0.8509   -0.2325 Q=    0.4100 A=    0.0000 R=    0.0000 C=    0.0000
 XYZ=    8.3115   -2.7371   -8.3397 Q=   -0.8200 A=    0.0000 R=    0.0000 C=    0.0000
 XYZ=    7.3370   -2.6764   -8.5556 Q=    0.4100 A=    0.0000 R=    0.0000 C=    0.0000
 XYZ=    8.7357   -1.8393   -8.4584 Q=    0.4100 A=    0.0000 R=    0.0000 C=    0.0000
 XYZ=   -3.9025    8.8499   -6.3864 Q=   -0.8200 A=    0.0000 R=    0.0000 C=    0.0000
 XYZ=   -4.2798    8.9623   -5.4672 Q=    0.4100 A=    0.0000 R=    0.0000 C=    0.0000
 XYZ=   -3.4941    7.9409   -6.4702 Q=    0.4100 A=    0.0000 R=    0.0000 C=    0.0000
 XYZ=    6.9169    7.1284    4.2315 Q=   -0.8200 A=    0.0000 R=    0.0000 C=    0.0000
 XYZ=    7.6143    6.4858    4.5490 Q=    0.4100 A=    0.0000 R=    0.0000 C=    0.0000
 XYZ=    6.4661    6.7567    3.4199 Q=    0.4100 A=    0.0000 R=    0.0000 C=    0.0000
 XYZ=   -7.2665   -3.8769   -7.0835 Q=   -0.8200 A=    0.0000 R=    0.0000 C=    0.0000
 XYZ=   -6.6432   -4.1642   -7.8109 Q=    0.4100 A=    0.0000 R=    0.0000 C=    0.0000
 XYZ=   -7.9185   -3.2114   -7.4469 Q=    0.4100 A=    0.0000 R=    0.0000 C=    0.0000
 XYZ=   -4.2831    5.5844   -8.5909 Q=   -0.8200 A=    0.0000 R=    0.0000 C=    0.0000
 XYZ=   -3.9178    6.0946   -9.3695 Q=    0.4100 A=    0.0000 R=    0.0000 C=    0.0000
 XYZ=   -5.2561    5.4053   -8.7367 Q=    0.4100 A=    0.0000 R=    0.0000 C=    0.0000
 XYZ=   10.9352   -2.4243    3.6500 Q=   -0.8200 A=    0.0000 R=    0.0000 C=    0.0000
 XYZ=   10.2099   -2.7051    3.0214 Q=    0.4100 A=    0.0000 R=    0.0000 C=    0.0000
 XYZ=   10.6148   -2.5197    4.5925 Q=    0.4100 A=    0.0000 R=    0.0000 C=    0.0000
 XYZ=    4.3858   -5.2317   -9.8254 Q=   -0.8200 A=    0.0000 R=    0.0000 C=    0.0000
 XYZ=    4.7943   -6.0222  -10.2818 Q=    0.4100 A=    0.0000 R=    0.0000 C=    0.0000
 XYZ=    4.5158   -4.4168  -10.3903 Q=    0.4100 A=    0.0000 R=    0.0000 C=    0.0000
 XYZ=   -1.3927    5.4905  -10.8696 Q=   -0.8200 A=    0.0000 R=    0.0000 C=    0.0000
 XYZ=   -2.0130    4.8334  -11.2978 Q=    0.4100 A=    0.0000 R=    0.0000 C=    0.0000
 XYZ=   -1.0335    5.1048  -10.0197 Q=    0.4100 A=    0.0000 R=    0.0000 C=    0.0000
 XYZ=   -4.0613   -7.8007   -6.4639 Q=   -0.8200 A=    0.0000 R=    0.0000 C=    0.0000
 XYZ=   -4.3071   -8.0897   -7.3892 Q=    0.4100 A=    0.0000 R=    0.0000 C=    0.0000
 XYZ=   -4.8915   -7.5775   -5.9529 Q=    0.4100 A=    0.0000 R=    0.0000 C=    0.0000
 XYZ=   -1.6613   -3.0819   10.3871 Q=   -0.8200 A=    0.0000 R=    0.0000 C=    0.0000
 XYZ=   -0.9153   -3.5883    9.9545 Q=    0.4100 A=    0.0000 R=    0.0000 C=    0.0000
 XYZ=   -2.3660   -3.7224   10.6921 Q=    0.4100 A=    0.0000 R=    0.0000 C=    0.0000
 XYZ=   -9.6389   -2.2464    4.5497 Q=   -0.8200 A=    0.0000 R=    0.0000 C=    0.0000
 XYZ=   -9.5681   -1.7730    3.6717 Q=    0.4100 A=    0.0000 R=    0.0000 C=    0.0000
 XYZ=  -10.4492   -2.8324    4.5480 Q=    0.4100 A=    0.0000 R=    0.0000 C=    0.0000
 XYZ=   10.8209   -5.1788    0.1255 Q=   -0.8200 A=    0.0000 R=    0.0000 C=    0.0000
 XYZ=   10.0959   -5.3446   -0.5430 Q=    0.4100 A=    0.0000 R=    0.0000 C=    0.0000
 XYZ=   11.1490   -6.0524    0.4849 Q=    0.4100 A=    0.0000 R=    0.0000 C=    0.0000
 XYZ=   -6.4244   -7.2478    5.0031 Q=   -0.8200 A=    0.0000 R=    0.0000 C=    0.0000
 XYZ=   -5.8113   -6.6445    4.4930 Q=    0.4100 A=    0.0000 R=    0.0000 C=    0.0000
 XYZ=   -7.2617   -6.7529    5.2354 Q=    0.4100 A=    0.0000 R=    0.0000 C=    0.0000
 XYZ=   -6.5239    4.8752    8.3472 Q=   -0.8200 A=    0.0000 R=    0.0000 C=    0.0000
 XYZ=   -7.0550    5.7192    8.4212 Q=    0.4100 A=    0.0000 R=    0.0000 C=    0.0000
 XYZ=   -5.6964    5.0478    7.8129 Q=    0.4100 A=    0.0000 R=    0.0000 C=    0.0000
 XYZ=   -4.0376   -9.2294    0.9920 Q=   -0.8200 A=    0.0000 R=    0.0000 C=    0.0000
 XYZ=   -4.8993   -9.2616    0.4857 Q=    0.4100 A=    0.0000 R=    0.0000 C=    0.0000
 XYZ=   -3.3987   -9.8945    0.6053 Q=    0.4100 A=    0.0000 R=    0.0000 C=    0.0000
 XYZ=    4.9170   -3.1584  -10.8819 Q=   -0.8200 A=    0.0000 R=    0.0000 C=    0.0000
 XYZ=    5.3616   -2.9917  -11.7620 Q=    0.4100 A=    0.0000 R=    0.0000 C=    0.0000
 XYZ=    5.4608   -2.7468  -10.1505 Q=    0.4100 A=    0.0000 R=    0.0000 C=    0.0000
 XYZ=   -2.7964   -3.5165  -10.8593 Q=   -0.8200 A=    0.0000 R=    0.0000 C=    0.0000
 XYZ=   -2.0445   -4.0440  -10.4639 Q=    0.4100 A=    0.0000 R=    0.0000 C=    0.0000
 XYZ=   -2.7386   -3.5502  -11.8571 Q=    0.4100 A=    0.0000 R=    0.0000 C=    0.0000
 XYZ=   -9.2425    5.3019    5.5013 Q=   -0.8200 A=    0.0000 R=    0.0000 C=    0.0000
 XYZ=   -8.6543    4.5037    5.3707 Q=    0.4100 A=    0.0000 R=    0.0000 C=    0.0000
 XYZ=   -8.7016    6.0576    5.8705 Q=    0.4100 A=    0.0000 R=    0.0000 C=    0.0000
 XYZ=    7.9545   -8.9039    3.3808 Q=   -0.8200 A=    0.0000 R=    0.0000 C=    0.0000
 XYZ=    7.4257   -8.0967    3.1182 Q=    0.4100 A=    0.0000 R=    0.0000 C=    0.0000
 XYZ=    7.5619   -9.3047    4.2086 Q=    0.4100 A=    0.0000 R=    0.0000 C=    0.0000
 XYZ=  -11.2797   -1.0086    1.4573 Q=   -0.8200 A=    0.0000 R=    0.0000 C=    0.0000
 XYZ=  -11.1220   -0.7481    0.5048 Q=    0.4100 A=    0.0000 R=    0.0000 C=    0.0000
 XYZ=  -10.4197   -1.3142    1.8660 Q=    0.4100 A=    0.0000 R=    0.0000 C=    0.0000
 XYZ=    0.6214    1.7496   11.7253 Q=   -0.8200 A=    0.0000 R=    0.0000 C=    0.0000
 XYZ=    0.9786    1.9764   10.8192 Q=    0.4100 A=    0.0000 R=    0.0000 C=    0.0000
 XYZ=    0.9222    0.8311   11.9818 Q=    0.4100 A=    0.0000 R=    0.0000 C=    0.0000
 XYZ=    8.3475    5.2622    4.8881 Q=   -0.8200 A=    0.0000 R=    0.0000 C=    0.0000
 XYZ=    7.9573    4.3654    4.6791 Q=    0.4100 A=    0.0000 R=    0.0000 C=    0.0000
 XYZ=    8.4879    5.3428    5.8749 Q=    0.4100 A=    0.0000 R=    0.0000 C=    0.0000
 XYZ=    4.4454   -1.2418    9.7383 Q=   -0.8200 A=    0.0000 R=    0.0000 C=    0.0000
 XYZ=    5.1668   -0.6971    9.3106 Q=    0.4100 A=    0.0000 R=    0.0000 C=    0.0000
 XYZ=    4.7968   -2.1543    9.9478 Q=    0.4100 A=    0.0000 R=    0.0000 C=    0.0000
 XYZ=   -1.8411    0.1982  -12.2494 Q=   -0.8200 A=    0.0000 R=    0.0000 C=    0.0000
 XYZ=   -1.2484   -0.3516  -11.6607 Q=    0.4100 A=    0.0000 R=    0.0000 C=    0.0000
 XYZ=   -2.7203    0.3426  -11.7953 Q=    0.4100 A=    0.0000 R=    0.0000 C=    0.0000
 XYZ=   -2.3326   -6.3027    8.7458 Q=   -0.8200 A=    0.0000 R=    0.0000 C=    0.0000
 XYZ=   -1.5771   -5.6513    8.8163 Q=    0.4100 A=    0.0000 R=    0.0000 C=    0.0000
 XYZ=   -3.1981   -5.8279    8.9057 Q=    0.4100 A=    0.0000 R=    0.0000 C=    0.0000
 XYZ=   -3.1704   -7.0955    6.7605 Q=   -0.8200 A=    0.0000 R=    0.0000 C=    0.0000
 XYZ=   -2.8640   -6.7505    7.6477 Q=    0.4100 A=    0.0000 R=    0.0000 C=    0.0000
 XYZ=   -3.9852   -7.6614    6.8863 Q=    0.4100 A=    0.0000 R=    0.0000 C=    0.0000
 XYZ=    8.6901   -8.3089   -3.7152 Q=   -0.8200 A=    0.0000 R=    0.0000 C=    0.0000
 XYZ=    8.4944   -8.1954   -2.7411 Q=    0.4100 A=    0.0000 R=    0.0000 C=    0.0000
 XYZ=    9.6403   -8.5973   -3.8328 Q=    0.4100 A=    0.0000 R=    0.0000 C=    0.0000
 XYZ=   -1.6342  -11.2354   -4.6755 Q=   -0.8200 A=    0.0000 R=    0.0000 C=    0.0000
 XYZ=   -0.8395  -10.8456   -4.2102 Q=    0.4100 A=    0.0000 R=    0.0000 C=    0.0000
 XYZ=   -1.9222  -10.6237   -5.4123 Q=    0.4100 A=    0.0000 R=    0.0000 C=    0.0000
 XYZ=   -7.7908    8.8211    0.6924 Q=   -0.8200 A=    0.0000 R=    0.0000 C=    0.0000
 XYZ=   -8.5009    9.3401    0.2166 Q=    0.4100 A=    0.0000 R=    0.0000 C=    0.0000
 XYZ=   -8.0628    8.6795    1.6443 Q=    0.4100 A=    0.0000 R=    0.0000 C=    0.0000
 XYZ=   -3.4316  -10.3807    2.9610 Q=   -0.8200 A=    0.0000 R=    0.0000 C=    0.0000
 XYZ=   -2.6761   -9.8110    3.2844 Q=    0.4100 A=    0.0000 R=    0.0000 C=    0.0000
 XYZ=   -3.8343   -9.9678    2.1441 Q=    0.4100 A=    0.0000 R=    0.0000 C=    0.0000
 XYZ=   11.3906    1.4218    2.5735 Q=   -0.8200 A=    0.0000 R=    0.0000 C=    0.0000
 XYZ=   11.8476    0.5513    2.7565 Q=    0.4100 A=    0.0000 R=    0.0000 C=    0.0000
 XYZ=   10.7111    1.2959    1.8506 Q=    0.4100 A=    0.0000 R=    0.0000 C=    0.0000
 XYZ=  -11.4520    1.9093   -1.2592 Q=   -0.8200 A=    0.0000 R=    0.0000 C=    0.0000
 XYZ=  -12.4144    1.6836   -1.1077 Q=    0.4100 A=    0.0000 R=    0.0000 C=    0.0000
 XYZ=  -11.1866    2.6604   -0.6547 Q=    0.4100 A=    0.0000 R=    0.0000 C=    0.0000
 XYZ=   -4.9722   10.8138    1.7800 Q=   -0.8200 A=    0.0000 R=    0.0000 C=    0.0000
 XYZ=   -5.7136   11.0369    2.4129 Q=    0.4100 A=    0.0000 R=    0.0000 C=    0.0000
 XYZ=   -5.3550   10.4246    0.9422 Q=    0.4100 A=    0.0000 R=    0.0000 C=    0.0000
 XYZ=   -6.1423   10.3242   -0.2085 Q=   -0.8200 A=    0.0000 R=    0.0000 C=    0.0000
 XYZ=   -6.6144   11.1516   -0.5128 Q=    0.4100 A=    0.0000 R=    0.0000 C=    0.0000
 XYZ=   -6.7989    9.7049    0.2219 Q=    0.4100 A=    0.0000 R=    0.0000 C=    0.0000
 XYZ=   -7.0010   -0.2763   -9.3931 Q=   -0.8200 A=    0.0000 R=    0.0000 C=    0.0000
 XYZ=   -7.5707   -1.0520   -9.1217 Q=    0.4100 A=    0.0000 R=    0.0000 C=    0.0000
 XYZ=   -6.3838   -0.5571  -10.1280 Q=    0.4100 A=    0.0000 R=    0.0000 C=    0.0000
 XYZ=   -8.4062    8.2505    2.8348 Q=   -0.8200 A=    0.0000 R=    0.0000 C=    0.0000
 XYZ=   -8.7602    7.3241    2.9637 Q=    0.4100 A=    0.0000 R=    0.0000 C=    0.0000
 XYZ=   -8.0766    8.6061    3.7095 Q=    0.4100 A=    0.0000 R=    0.0000 C=    0.0000
 XYZ=    9.9820    3.9609   -3.6344 Q=   -0.8200 A=    0.0000 R=    0.0000 C=    0.0000
 XYZ=   10.4159    4.5369   -2.9415 Q=    0.4100 A=    0.0000 R=    0.0000 C=    0.0000
 XYZ=    9.9924    3.0083   -3.3299 Q=    0.4100 A=    0.0000 R=    0.0000 C=    0.0000
 XYZ=   -6.5956   -8.3985   -3.6151 Q=   -0.8200 A=    0.0000 R=    0.0000 C=    0.0000
 XYZ=   -6.8332   -7.4537   -3.3897 Q=    0.4100 A=    0.0000 R=    0.0000 C=    0.0000
 XYZ=   -7.4227   -8.9606   -3.6096 Q=    0.4100 A=    0.0000 R=    0.0000 C=    0.0000
 XYZ=   -4.3032    7.1961    8.7781 Q=   -0.8200 A=    0.0000 R=    0.0000 C=    0.0000
 XYZ=   -4.5635    6.4511    8.1638 Q=    0.4100 A=    0.0000 R=    0.0000 C=    0.0000
 XYZ=   -5.1086    7.5108    9.2803 Q=    0.4100 A=    0.0000 R=    0.0000 C=    0.0000
 XYZ=   -3.1532   -7.0357  -10.0646 Q=   -0.8200 A=    0.0000 R=    0.0000 C=    0.0000
 XYZ=   -3.7313   -6.2718  -10.3516 Q=    0.4100 A=    0.0000 R=    0.0000 C=    0.0000
 XYZ=   -2.6883   -6.7996   -9.2113 Q=    0.4100 A=    0.0000 R=    0.0000 C=    0.0000
 XYZ=   -9.0292   -6.3491    1.8167 Q=   -0.8200 A=    0.0000 R=    0.0000 C=    0.0000
 XYZ=   -9.7177   -6.5557    1.1215 Q=    0.4100 A=    0.0000 R=    0.0000 C=    0.0000
 XYZ=   -8.4623   -5.5853    1.5078 Q=    0.4100 A=    0.0000 R=    0.0000 C=    0.0000
 XYZ=   -2.5007  -10.8438    0.1708 Q=   -0.8200 A=    0.0000 R=    0.0000 C=    0.0000
 XYZ=   -2.0230  -11.6287    0.5654 Q=    0.4100 A=    0.0000 R=    0.0000 C=    0.0000
 XYZ=   -2.9097  -11.1073   -0.7029 Q=    0.4100 A=    0.0000 R=    0.0000 C=    0.0000
 XYZ=    9.3944    1.5681    5.6236 Q=   -0.8200 A=    0.0000 R=    0.0000 C=    0.0000
 XYZ=   10.3743    1.6618    5.4469 Q=    0.4100 A=    0.0000 R=    0.0000 C=    0.0000
 XYZ=    9.2410    1.4699    6.6069 Q=    0.4100 A=    0.0000 R=    0.0000 C=    0.0000
 XYZ=   -2.6227    3.6823  -11.8909 Q=   -0.8200 A=    0.0000 R=    0.0000 C=    0.0000
 XYZ=   -3.1408    3.1284  -11.2392 Q=    0.4100 A=    0.0000 R=    0.0000 C=    0.0000
 XYZ=   -2.1154    3.0820  -12.5092 Q=    0.4100 A=    0.0000 R=    0.0000 C=    0.0000
 XYZ=  -11.0169    2.2748   -3.5837 Q=   -0.8200 A=    0.0000 R=    0.0000 C=    0.0000
 XYZ=  -11.1777    2.0084   -2.6333 Q=    0.4100 A=    0.0000 R=    0.0000 C=    0.0000
 XYZ=  -11.7274    1.8789   -4.1656 Q=    0.4100 A=    0.0000 R=    0.0000 C=    0.0000
 XYZ=   -4.2444   -4.9834    8.9563 Q=   -0.8200 A=    0.0000 R=    0.0000 C=    0.0000
 XYZ=   -4.9606   -5.6806    8.9241 Q=    0.4100 A=    0.0000 R=    0.0000 C=    0.0000
 XYZ=   -3.9422   -4.8595    9.9014 Q=    0.4100 A=    0.0000 R=    0.0000 C=    0.0000
 XYZ=    3.3701   -0.3535   11.6386 Q=   -0.8200 A=    0.0000 R=    0.0000 C=    0.0000
 XYZ=    3.6253   -0.6823   10.7293 Q=    0.4100 A=    0.0000 R=    0.0000 C=    0.0000
 XYZ=    4.1881   -0.0410   12.1217 Q=    0.4100 A=    0.0000 R=    0.0000 C=    0.0000
 XYZ=   -7.9845    2.8126    7.6596 Q=   -0.8200 A=    0.0000 R=    0.0000 C=    0.0000
 XYZ=   -7.9999    2.2357    8.4764 Q=    0.4100 A=    0.0000 R=    0.0000 C=    0.0000
 XYZ=   -7.5865    3.7014    7.8869 Q=    0.4100 A=    0.0000 R=    0.0000 C=    0.0000
 XYZ=    2.3159    5.5596   10.7308 Q=   -0.8200 A=    0.0000 R=    0.0000 C=    0.0000
 XYZ=    1.5139    5.0960   10.3542 Q=    0.4100 A=    0.0000 R=    0.0000 C=    0.0000
 XYZ=    2.9941    5.6926   10.0080 Q=    0.4100 A=    0.0000 R=    0.0000 C=    0.0000
 XYZ=   -8.2659   -5.7350    5.7809 Q=   -0.8200 A=    0.0000 R=    0.0000 C=    0.0000
 XYZ=   -9.0436   -5.8854    5.1705 Q=    0.4100 A=    0.0000 R=    0.0000 C=    0.0000
 XYZ=   -7.9466   -4.7920    5.6878 Q=    0.4100 A=    0.0000 R=    0.0000 C=    0.0000
 XYZ=   -0.7327   -1.6414   12.0178 Q=   -0.8200 A=    0.0000 R=    0.0000 C=    0.0000
 XYZ=   -0.9981   -2.2720   11.2885 Q=    0.4100 A=    0.0000 R=    0.0000 C=    0.0000
 XYZ=   -1.5532   -1.2571   12.4410 Q=    0.4100 A=    0.0000 R=    0.0000 C=    0.0000
 XYZ=   -1.6312    2.2338   11.4794 Q=   -0.8200 A=    0.0000 R=    0.0000 C=    0.0000
 XYZ=   -0.7072    1.8727   11.6056 Q=    0.4100 A=    0.0000 R=    0.0000 C=    0.0000
 XYZ=   -1.5988    3.2331   11.4608 Q=    0.4100 A=    0.0000 R=    0.0000 C=    0.0000
 XYZ=   -4.4742   -5.2521  -10.6987 Q=   -0.8200 A=    0.0000 R=    0.0000 C=    0.0000
 XYZ=   -4.6582   -5.3935  -11.6715 Q=    0.4100 A=    0.0000 R=    0.0000 C=    0.0000
 XYZ=   -3.8795   -4.4563  -10.5842 Q=    0.4100 A=    0.0000 R=    0.0000 C=    0.0000
 XYZ=    6.0171    6.9039    6.6343 Q=   -0.8200 A=    0.0000 R=    0.0000 C=    0.0000
 XYZ=    6.1900    7.3181    5.7406 Q=    0.4100 A=    0.0000 R=    0.0000 C=    0.0000
 XYZ=    6.3210    7.5271    7.3549 Q=    0.4100 A=    0.0000 R=    0.0000 C=    0.0000
 XYZ=   -6.1110    3.3875  -10.6898 Q=   -0.8200 A=    0.0000 R=    0.0000 C=    0.0000
 XYZ=   -6.7660    2.6532  -10.5115 Q=    0.4100 A=    0.0000 R=    0.0000 C=    0.0000
 XYZ=   -5.1819    3.0181  -10.6671 Q=    0.4100 A=    0.0000 R=    0.0000 C=    0.0000
 XYZ=    0.2312   -9.3458   -9.7181 Q=   -0.8200 A=    0.0000 R=    0.0000 C=    0.0000
 XYZ=    0.2821   -9.0344  -10.6670 Q=    0.4100 A=    0.0000 R=    0.0000 C=    0.0000
 XYZ=    0.7780   -8.7408   -9.1391 Q=    0.4100 A=    0.0000 R=    0.0000 C=    0.0000
 XYZ=   -6.1324   -8.7748   -0.1926 Q=   -0.8200 A=    0.0000 R=    0.0000 C=    0.0000
 XYZ=   -7.0216   -8.7309    0.2628 Q=    0.4100 A=    0.0000 R=    0.0000 C=    0.0000
 XYZ=   -6.1443   -9.5039   -0.8771 Q=    0.4100 A=    0.0000 R=    0.0000 C=    0.0000
 XYZ=  -11.4197    3.1772    2.7658 Q=   -0.8200 A=    0.0000 R=    0.0000 C=    0.0000
 XYZ=  -11.6318    3.4828    1.8376 Q=    0.4100 A=    0.0000 R=    0.0000 C=    0.0000
 XYZ=  -11.3600    2.1791    2.7827 Q=    0.4100 A=    0.0000 R=    0.0000 C=    0.0000
 XYZ=    6.7427    4.9107   -7.8208 Q=   -0.8200 A=    0.0000 R=    0.0000 C=    0.0000
 XYZ=    7.6656    5.2838   -7.7253 Q=    0.4100 A=    0.0000 R=    0.0000 C=    0.0000
 XYZ=    6.5298    4.7923   -8.7907 Q=    0.4100 A=    0.0000 R=    0.0000 C=    0.0000
 XYZ=   -7.7467    6.9250    6.0545 Q=   -0.8200 A=    0.0000 R=    0.0000 C=    0.0000
 XYZ=   -7.7893    7.8454    5.6658 Q=    0.4100 A=    0.0000 R=    0.0000 C=    0.0000
 XYZ=   -7.6672    6.9867    7.0494 Q=    0.4100 A=    0.0000 R=    0.0000 C=    0.0000
 XYZ=   -9.7363    3.6391   -7.1526 Q=   -0.8200 A=    0.0000 R=    0.0000 C=    0.0000
 XYZ=  -10.1083    3.9830   -8.0148 Q=    0.4100 A=    0.0000 R=    0.0000 C=    0.0000
 XYZ=   -8.7385    3.6066   -7.2095 Q=    0.4100 A=    0.0000 R=    0.0000 C=    0.0000
 XYZ=   -1.7175    4.5377   11.2522 Q=   -0.8200 A=    0.0000 R=    0.0000 C=    0.0000
 XYZ=   -1.5358    5.3514   11.8045 Q=    0.4100 A=    0.0000 R=    0.0000 C=    0.0000
 XYZ=   -2.5086    4.7044   10.6635 Q=    0.4100 A=    0.0000 R=    0.0000 C=    0.0000
 XYZ=   -6.2327   -7.1199   -8.0299 Q=   -0.8200 A=    0.0000 R=    0.0000 C=    0.0000
 XYZ=   -5.5422   -7.7302   -8.4183 Q=    0.4100 A=    0.0000 R=    0.0000 C=    0.0000
 XYZ=   -6.1462   -7.1099   -7.0337 Q=    0.4100 A=    0.0000 R=    0.0000 C=    0.0000
 XYZ=   -5.5974    9.8180    4.6755 Q=   -0.8200 A=    0.0000 R=    0.0000 C=    0.0000
 XYZ=   -4.8675   10.3137    5.1463 Q=    0.4100 A=    0.0000 R=    0.0000 C=    0.0000
 XYZ=   -6.0473   10.4279    4.0229 Q=    0.4100 A=    0.0000 R=    0.0000 C=    0.0000
 XYZ=   -5.5535    3.8321   10.3558 Q=   -0.8200 A=    0.0000 R=    0.0000 C=    0.0000
 XYZ=   -4.6350    4.2271   10.3799 Q=    0.4100 A=    0.0000 R=    0.0000 C=    0.0000
 XYZ=   -5.9978    4.0743    9.4933 Q=    0.4100 A=    0.0000 R=    0.0000 C=    0.0000
 XYZ=   -7.5443    1.6562  -10.4552 Q=   -0.8200 A=    0.0000 R=    0.0000 C=    0.0000
 XYZ=   -7.3570    0.8426   -9.9046 Q=    0.4100 A=    0.0000 R=    0.0000 C=    0.0000
 XYZ=   -7.9877    1.3854  -11.3096 Q=    0.4100 A=    0.0000 R=    0.0000 C=    0.0000
 XYZ=   -1.0947   -6.7131  -11.4921 Q=   -0.8200 A=    0.0000 R=    0.0000 C=    0.0000
 XYZ=   -1.9314   -7.0512  -11.0612 Q=    0.4100 A=    0.0000 R=    0.0000 C=    0.0000
 XYZ=   -0.8049   -5.8692  -11.0405 Q=    0.4100 A=    0.0000 R=    0.0000 C=    0.0000
 XYZ=   -6.7694    4.9677   -8.8792 Q=   -0.8200 A=    0.0000 R=    0.0000 C=    0.0000
 XYZ=   -7.3256    5.7594   -9.1321 Q=    0.4100 A=    0.0000 R=    0.0000 C=    0.0000
 XYZ=   -6.6377    4.3835   -9.6801 Q=    0.4100 A=    0.0000 R=    0.0000 C=    0.0000
[...]
    41  H    0.000000   0.000000   0.000000   0.000000   0.000000   0.000000
    42  O    0.000000  -0.000016  -0.003567   0.002337   0.000146   0.000208
    43  H    0.000000   0.000002  -0.000620  -0.000153  -0.000015   0.000000
    44  H    0.000000   0.000000   0.000256   0.002371  -0.000122  -0.000003
    45  O    0.000000   0.000000   0.000000   0.000000   0.000000   0.000000
    46  H    0.000000   0.000000   0.000000   0.000000   0.000000   0.000000
    47  H    0.000000   0.000000   0.000000   0.000000   0.000000   0.000000
    48  O   -0.000042   0.000019  -0.000086   0.000147  -0.000089   0.000000
    49  H    0.000001   0.000001   0.000015  -0.000018  -0.000002   0.000000
    50  H    0.000000   0.000000  -0.000098  -0.000006   0.000001   0.000000
              31         32         33         34         35         36
     1  C    0.000000  -0.000365   0.001726   0.000076  -0.000091  -0.002294
     2  H    0.000000   0.000000   0.000028   0.000000   0.000001  -0.000012
     3  H    0.000000   0.000000  -0.000094   0.000000   0.000000  -0.000068
     4  C   -0.000029  -0.000236   0.000209   0.000101  -0.000543   0.002295
     5  H    0.000000  -0.000001   0.000000   0.000000   0.000000  -0.000001
     6  C    0.000308   0.000712  -0.000254   0.000003   0.000037  -0.000851
     7  H    0.000008  -0.001006   0.000000   0.000000   0.000000   0.000000
     8  O    0.000001   0.001517  -0.000002   0.000000  -0.000001   0.000019
     9  O    0.000000   0.000001   0.000044   0.000001  -0.000002   0.000001
    10  H    0.000000   0.000000  -0.000001   0.000000   0.000000   0.000000
    11  H    0.000000  -0.000001   0.000000   0.000000   0.000000   0.000000
    12  O    0.001752  -0.003735   0.000000   0.000000   0.000000   0.000000
    13  H    0.000075   0.002495   0.000000   0.000000   0.000000   0.000000
    14  H   -0.000262  -0.001754   0.000000   0.000000   0.000000   0.000000
    15  O    0.000000   0.000000  -0.000004   0.000000   0.000000   0.000000
    16  H    0.000000   0.000000  -0.000001   0.000000   0.000000   0.000000
    17  H    0.000000   0.000000   0.000000   0.000000   0.000000   0.000000
    18  O    0.000000   0.000000   0.000000   0.000000   0.000000   0.000000
    19  H    0.000000   0.000000   0.000000   0.000000   0.000000   0.000000
    20  H    0.000000   0.000000   0.000000   0.000000   0.000000   0.000000
    21  O   -0.000255  -0.002022   0.000000   0.000000   0.000000   0.000000
    22  H   -0.000042   0.000984   0.000000   0.000000   0.000000   0.000000
    23  H   -0.000010  -0.000030   0.000000   0.000000   0.000000   0.000000
    24  O    0.000000   0.000000   0.000678   0.000004  -0.000024  -0.000002
    25  H    0.000000   0.000000  -0.000575   0.000001   0.000010  -0.000001
    26  H    0.000000   0.000000  -0.000011   0.000000   0.000001   0.000000
    27  O   -0.000001  -0.000002   0.000000   0.000000   0.000000   0.000000
    28  H    0.000000   0.000004   0.000000   0.000000   0.000000   0.000000
    29  H    0.000000   0.000000   0.000000   0.000000   0.000000   0.000000
    30  O    0.210614   0.174446   0.000000   0.000000   0.000000   0.000000
    31  H    0.171845  -0.006314   0.000000   0.000000   0.000000   0.000000
    32  H   -0.006314   0.196846   0.000000   0.000000   0.000000   0.000000
    33  O    0.000000   0.000000   8.827119   0.213283   0.213382  -0.035536
    34  H    0.000000   0.000000   0.213283   0.177759  -0.011741   0.000128
    35  H    0.000000   0.000000   0.213382  -0.011741   0.193442  -0.000970
    36  O    0.000000   0.000000  -0.035536   0.000128  -0.000970   8.902189
    37  H    0.000000   0.000000   0.001555  -0.000008   0.000009   0.182998
    38  H    0.000000   0.000000   0.013203  -0.001901  -0.000327   0.189076
    39  O    0.000000   0.000000  -0.005288  -0.002409   0.000811  -0.068833
    40  H    0.000000   0.000000   0.005741  -0.000422   0.000394   0.000185
    41  H    0.000000   0.000000  -0.000067  -0.000010  -0.000113   0.047895
    42  O   -0.000015   0.000069   0.000000   0.000000   0.000000   0.000000
    43  H    0.000000   0.000000   0.000000   0.000000   0.000000   0.000000
    44  H    0.000001   0.000023   0.000000   0.000000   0.000000   0.000000
    45  O    0.000000   0.000000   0.000000   0.000000   0.000000   0.000000
    46  H    0.000000   0.000000   0.000000   0.000000   0.000000   0.000000
    47  H    0.000000   0.000000   0.000000   0.000000   0.000000   0.000000
    48  O    0.000000   0.000000   0.000063   0.000000  -0.000003   0.000000
    49  H    0.000000   0.000000   0.000001   0.000000  -0.000001   0.000000
    50  H    0.000000   0.000000   0.000000   0.000000   0.000000   0.000000
              37         38         39         40         41         42
     1  C   -0.000144  -0.000458  -0.000307   0.000000   0.000040  -0.000457
     2  H    0.000001   0.000006  -0.000001   0.000000  -0.000001   0.000000
     3  H    0.000000   0.000010   0.000000   0.000000   0.000000   0.000000
     4  C    0.000081   0.000788  -0.001152  -0.000033  -0.000225  -0.002307
     5  H    0.000000   0.000000   0.000000   0.000000   0.000000   0.000000
     6  C    0.000013   0.000062   0.000252  -0.000014  -0.000003  -0.003161
     7  H    0.000000   0.000000   0.000000   0.000000   0.000000  -0.000013
     8  O    0.000000  -0.000001  -0.000005   0.000000   0.000000  -0.003054
     9  O    0.000000   0.000000  -0.000001   0.000000   0.000000  -0.000254
    10  H    0.000000   0.000000   0.000000   0.000000   0.000000  -0.000001
    11  H    0.000000   0.000000   0.000000   0.000000   0.000000   0.000010
    12  O    0.000000   0.000000   0.000000   0.000000   0.000000   0.002956
    13  H    0.000000   0.000000   0.000000   0.000000   0.000000  -0.000497
    14  H    0.000000   0.000000   0.000000   0.000000   0.000000   0.000284
    15  O    0.000000   0.000000   0.000000   0.000000   0.000000  -0.000006
    16  H    0.000000   0.000000   0.000000   0.000000   0.000000   0.000000
    17  H    0.000000   0.000000   0.000000   0.000000   0.000000   0.000000
    18  O    0.000000   0.000000   0.000000   0.000000   0.000000   0.000000
    19  H    0.000000   0.000000   0.000000   0.000000   0.000000   0.000000
    20  H    0.000000   0.000000   0.000000   0.000000   0.000000   0.000000
    21  O    0.000000   0.000000   0.000000   0.000000   0.000000  -0.038244
    22  H    0.000000   0.000000   0.000000   0.000000   0.000000   0.002962
    23  H    0.000000   0.000000   0.000000   0.000000   0.000000   0.000279
    24  O    0.000000   0.000003   0.000008   0.000002   0.000000  -0.000106
    25  H    0.000000  -0.000001   0.000000   0.000000   0.000000   0.000000
    26  H    0.000000   0.000000   0.000000   0.000000   0.000000  -0.000016
    27  O    0.000000   0.000000   0.000000   0.000000   0.000000  -0.003567
    28  H    0.000000   0.000000   0.000000   0.000000   0.000000   0.002337
    29  H    0.000000   0.000000   0.000000   0.000000   0.000000   0.000146
    30  O    0.000000   0.000000   0.000000   0.000000   0.000000   0.000208
    31  H    0.000000   0.000000   0.000000   0.000000   0.000000  -0.000015
    32  H    0.000000   0.000000   0.000000   0.000000   0.000000   0.000069
    33  O    0.001555   0.013203  -0.005288   0.005741  -0.000067   0.000000
    34  H   -0.000008  -0.001901  -0.002409  -0.000422  -0.000010   0.000000
    35  H    0.000009  -0.000327   0.000811   0.000394  -0.000113   0.000000
    36  O    0.182998   0.189076  -0.068833   0.000185   0.047895   0.000000
    37  H    0.146074  -0.005170   0.002034  -0.000002   0.000252   0.000000
    38  H   -0.005170   0.252956   0.002711  -0.000269  -0.005071   0.000000
    39  O    0.002034   0.002711   8.865905   0.224798   0.169345   0.000000
    40  H   -0.000002  -0.000269   0.224798   0.195928  -0.004865   0.000000
    41  H    0.000252  -0.005071   0.169345  -0.004865   0.189861   0.000000
    42  O    0.000000   0.000000   0.000000   0.000000   0.000000   8.977995
    43  H    0.000000   0.000000   0.000000   0.000000   0.000000   0.190085
    44  H    0.000000   0.000000   0.000000   0.000000   0.000000   0.140538
    45  O    0.000000   0.000000   0.000000   0.000000   0.000000   0.000000
    46  H    0.000000   0.000000   0.000000   0.000000   0.000000   0.000000
    47  H    0.000000   0.000000   0.000000   0.000000   0.000000   0.000000
    48  O    0.000000   0.000000   0.000015  -0.000003   0.000000   0.003333
    49  H    0.000000   0.000000  -0.000005   0.000000   0.000000  -0.000140
    50  H    0.000000   0.000000   0.000000   0.000000   0.000000  -0.000380
              43         44         45         46         47         48
     1  C    0.000019   0.000003   0.001348   0.000074   0.000031  -0.000022
     2  H    0.000000   0.000000   0.000000   0.000000   0.000000  -0.000006
     3  H    0.000000   0.000000  -0.000007   0.000000   0.000000   0.000000
     4  C    0.000021   0.000052   0.000474   0.000070  -0.000623  -0.000268
     5  H    0.000000   0.000000  -0.000007  -0.000003   0.000001   0.000000
     6  C    0.000142   0.000228  -0.001276  -0.000147   0.000407   0.000047
     7  H    0.000000  -0.000009   0.000004   0.000000   0.000000  -0.000001
     8  O   -0.000156   0.001008   0.000000   0.000000   0.000000  -0.000179
     9  O    0.000011   0.000007  -0.000022   0.000000   0.000000  -0.000083
    10  H    0.000000   0.000000   0.000003   0.000000   0.000000   0.000001
    11  H   -0.000003   0.000001  -0.000002   0.000000   0.000000   0.000010
    12  O    0.000035  -0.001646   0.000000   0.000000   0.000000   0.000019
    13  H   -0.000003   0.000035   0.000000   0.000000   0.000000  -0.000001
    14  H   -0.000013   0.000279   0.000000   0.000000   0.000000  -0.000001
    15  O    0.000000   0.000000  -0.000484   0.000009  -0.000024  -0.000001
    16  H    0.000000   0.000000   0.000033   0.000000   0.000000   0.000000
    17  H    0.000000   0.000000  -0.000375   0.000003  -0.000020   0.000000
    18  O    0.000000   0.000000  -0.058085   0.002015   0.001979   0.000000
    19  H    0.000000   0.000000   0.000799  -0.000004  -0.000023   0.000000
    20  H    0.000000   0.000000   0.016485   0.000938  -0.002481   0.000000
    21  O    0.000808   0.044539   0.000000   0.000000   0.000000  -0.000172
    22  H   -0.000027  -0.000173   0.000000   0.000000   0.000000  -0.000005
    23  H    0.000013  -0.002121   0.000000   0.000000   0.000000   0.000003
    24  O   -0.000001   0.000005   0.000000   0.000000   0.000000  -0.003093
    25  H    0.000000   0.000000   0.000000   0.000000   0.000000  -0.000042
    26  H    0.000002   0.000000   0.000000   0.000000   0.000000   0.000019
    27  O   -0.000620   0.000256   0.000000   0.000000   0.000000  -0.000086
    28  H   -0.000153   0.002371   0.000000   0.000000   0.000000   0.000147
    29  H   -0.000015  -0.000122   0.000000   0.000000   0.000000  -0.000089
    30  O    0.000000  -0.000003   0.000000   0.000000   0.000000   0.000000
    31  H    0.000000   0.000001   0.000000   0.000000   0.000000   0.000000
    32  H    0.000000   0.000023   0.000000   0.000000   0.000000   0.000000
    33  O    0.000000   0.000000   0.000000   0.000000   0.000000   0.000063
    34  H    0.000000   0.000000   0.000000   0.000000   0.000000   0.000000
    35  H    0.000000   0.000000   0.000000   0.000000   0.000000  -0.000003
    36  O    0.000000   0.000000   0.000000   0.000000   0.000000   0.000000
    37  H    0.000000   0.000000   0.000000   0.000000   0.000000   0.000000
    38  H    0.000000   0.000000   0.000000   0.000000   0.000000   0.000000
    39  O    0.000000   0.000000   0.000000   0.000000   0.000000   0.000015
    40  H    0.000000   0.000000   0.000000   0.000000   0.000000  -0.000003
    41  H    0.000000   0.000000   0.000000   0.000000   0.000000   0.000000
    42  O    0.190085   0.140538   0.000000   0.000000   0.000000   0.003333
    43  H    0.141766  -0.003515   0.000000   0.000000   0.000000   0.000944
    44  H   -0.003515   0.235738   0.000000   0.000000   0.000000  -0.000292
    45  O    0.000000   0.000000   8.783269   0.212522   0.216872   0.000000
    46  H    0.000000   0.000000   0.212522   0.158625  -0.005521   0.000000
    47  H    0.000000   0.000000   0.216872  -0.005521   0.223975   0.000000
    48  O    0.000944  -0.000292   0.000000   0.000000   0.000000   8.842792
    49  H    0.000012   0.000001   0.000000   0.000000   0.000000   0.210366
    50  H   -0.000060   0.000012   0.000000   0.000000   0.000000   0.206789
              49         50
     1  C    0.000022  -0.000004
     2  H    0.000000   0.000000
     3  H    0.000000   0.000000
     4  C   -0.000020   0.000007
     5  H    0.000000   0.000000
     6  C    0.000015  -0.000004
     7  H    0.000000   0.000000
     8  O    0.000009   0.000005
     9  O    0.000003  -0.000001
    10  H    0.000000   0.000000
    11  H    0.000000   0.000000
    12  O    0.000000   0.000000
    13  H    0.000000   0.000000
    14  H    0.000000   0.000000
    15  O    0.000000   0.000000
    16  H    0.000000   0.000000
    17  H    0.000000   0.000000
    18  O    0.000000   0.000000
    19  H    0.000000   0.000000
    20  H    0.000000   0.000000
    21  O    0.000008   0.000007
    22  H    0.000000   0.000000
    23  H    0.000000   0.000000
    24  O   -0.000137   0.000068
    25  H    0.000001   0.000000
    26  H    0.000001   0.000000
    27  O    0.000015  -0.000098
    28  H   -0.000018  -0.000006
    29  H   -0.000002   0.000001
    30  O    0.000000   0.000000
    31  H    0.000000   0.000000
    32  H    0.000000   0.000000
    33  O    0.000001   0.000000
    34  H    0.000000   0.000000
    35  H   -0.000001   0.000000
    36  O    0.000000   0.000000
    37  H    0.000000   0.000000
    38  H    0.000000   0.000000
    39  O   -0.000005   0.000000
    40  H    0.000000   0.000000
    41  H    0.000000   0.000000
    42  O   -0.000140  -0.000380
    43  H    0.000012  -0.000060
    44  H    0.000001   0.000012
    45  O    0.000000   0.000000
    46  H    0.000000   0.000000
    47  H    0.000000   0.000000
    48  O    0.210366   0.206789
    49  H    0.163295  -0.007739
    50  H   -0.007739   0.179259
 Mulliken charges:
               1
     1  C   -0.341778
     2  H    0.275704
     3  H    0.237626
     4  C   -0.187175
     5  H    0.222317
     6  C    0.071865
     7  H    0.135223
     8  O   -0.341182
     9  O   -1.169117
    10  H    0.643346
    11  H    0.534812
    12  O   -1.286771
    13  H    0.488906
    14  H    0.726206
    15  O   -1.271130
    16  H    0.616613
    17  H    0.643716
    18  O   -1.214457
    19  H    0.614192
    20  H    0.617902
    21  O   -1.283017
    22  H    0.674281
    23  H    0.638154
    24  O   -1.254916
    25  H    0.581153
    26  H    0.642986
    27  O   -1.259570
    28  H    0.627754
    29  H    0.619370
    30  O   -1.269546
    31  H    0.622323
    32  H    0.638367
    33  O   -1.235199
    34  H    0.625136
    35  H    0.605731
    36  O   -1.216216
    37  H    0.672307
    38  H    0.554383
    39  O   -1.187877
    40  H    0.578561
    41  H    0.602961
    42  O   -1.268986
    43  H    0.670707
    44  H    0.582784
    45  O   -1.171554
    46  H    0.631420
    47  H    0.565427
    48  O   -1.260199
    49  H    0.634312
    50  H    0.622144
 Sum of Mulliken charges =   0.00000
 Mulliken charges with hydrogens summed into heavy atoms:
               1
     1  C    0.171553
     4  C    0.035143
     6  C    0.207088
     8  O   -0.341182
     9  O    0.009040
    12  O   -0.071658
    15  O   -0.010801
    18  O    0.017638
    21  O    0.029418
    24  O   -0.030777
    27  O   -0.012446
    30  O   -0.008856
    33  O   -0.004332
    36  O    0.010474
    39  O   -0.006355
    42  O   -0.015494
    45  O    0.025293
    48  O   -0.003743
 Electronic spatial extent (au):  <R**2>=          12358.0621
 Charge=              0.0000 electrons
 Dipole moment (field-independent basis, Debye):
    X=             11.5211    Y=            -10.1848    Z=             -6.9481  Tot=             16.8743
 Quadrupole moment (field-independent basis, Debye-Ang):
   XX=            -96.6887   YY=            -49.6740   ZZ=           -168.8263
   XY=            -25.5384   XZ=            -30.1893   YZ=             10.9114
 Traceless Quadrupole moment (field-independent basis, Debye-Ang):
   XX=              8.3743   YY=             55.3890   ZZ=            -63.7633
   XY=            -25.5384   XZ=            -30.1893   YZ=             10.9114
 Octapole moment (field-independent basis, Debye-Ang**2):
  XXX=            353.3360  YYY=           -118.5777  ZZZ=           -128.1102  XYY=            -22.7230
  XXY=           -184.3672  XXZ=            149.7991  XZZ=            119.4411  YZZ=            -43.7626
  YYZ=            -29.3537  XYZ=             47.3200
 Hexadecapole moment (field-independent basis, Debye-Ang**3):
 XXXX=          -5202.1708 YYYY=          -3717.9455 ZZZZ=          -2503.5081 XXXY=          -1462.8127
 XXXZ=          -1510.3461 YYYX=             75.7428 YYYZ=           -282.3078 ZZZX=           -114.0525
 ZZZY=            294.4574 XXYY=          -1442.0281 XXZZ=          -1819.1435 YYZZ=          -1217.3878
 XXYZ=            285.7695 YYXZ=             40.0264 ZZXY=           -322.5604
 N-N= 1.079071698415D+03 E-N=-6.123578026398D+03  KE= 1.248993267534D+03
 Leave Link  601 at Fri Sep 14 18:38:55 2018, MaxMem=    33554432 cpu:        13.3
 (Enter /usr/local/pacerepov1/gaussian/G09D01LINDA/g09/l9999.exe)

 Test job not archived.
 1\1\GINC-IW-C42-26\SP\RLC-wPBE TD-FC\6-31+G(d)\C3H32O15\HOLIVEIRA7\14-
 Sep-2018\0\\#p td=(nstates=15)/6-31+g(d) lc-wpbe charge\\Acroleina in 
 Water\\0,1\C,0,0.485154,0.480443,-1.430142\H,0,1.461403,0.187773,-1.05
 5732\H,0,0.429244,0.878853,-2.437062\C,0,-0.605127,0.346563,-0.658432\
 H,0,-1.591686,0.632893,-1.012412\C,0,-0.508516,-0.199107,0.712798\H,0,
 -1.458487,-0.272107,1.272438\O,0,0.544883,-0.561317,1.236519\O,0,2.089
 011,1.72998,1.258101\H,0,1.678721,2.552229,0.863581\H,0,1.377921,1.044
 119,1.412891\O,0,-1.168729,-1.274161,3.14975\H,0,-1.052679,-0.53069,2.
 491121\H,0,-0.614989,-1.08952,3.96174\O,0,1.135581,3.71356,0.310351\H,
 0,1.726971,3.870529,-0.480609\H,0,0.200151,3.987469,0.086671\O,0,-0.86
 2149,4.386419,-0.594559\H,0,-0.361139,5.10161,-1.081919\H,0,-1.808249,
 4.363019,-0.917649\O,0,0.022781,-3.28538,2.587451\H,0,-0.479089,-2.433
 96,2.73999\H,0,-0.559969,-4.06275,2.82427\O,0,4.217791,1.169909,0.5484
 21\H,0,4.186431,1.35016,-0.434719\H,0,3.296721,1.24509,0.930571\O,0,1.
 568881,-4.92612,1.829931\H,0,0.982421,-4.13396,1.999111\H,0,1.795001,-
 5.36514,2.699521\O,0,-3.325289,-1.41583,3.76872\H,0,-3.350549,-1.98984
 1,4.587211\H,0,-2.380589,-1.32705,3.45295\O,0,4.420141,-0.41997,-3.440
 36\H,0,5.027721,-0.44878,-4.234109\H,0,4.625031,-1.1897,-2.83572\O,0,2
 .717851,-1.508461,-5.116089\H,0,2.104441,-1.05072,-5.759739\H,0,3.1551
 81,-0.82634,-4.53001\O,0,3.808541,-3.47451,-3.95701\H,0,4.415041,-3.08
 7631,-3.26235\H,0,3.271531,-2.7422,-4.37581\O,0,1.947131,-2.411411,4.1
 7798\H,0,2.853661,-2.345361,3.76098\H,0,1.308801,-2.819041,3.524971\O,
 0,-3.319189,4.377419,-1.099719\H,0,-4.153339,3.89542,-1.367909\H,0,-3.
 482629,4.87902,-0.250159\O,0,4.994891,-2.45991,1.567141\H,0,4.790321,-
 2.917191,0.701641\H,0,5.276921,-3.13937,2.24451\\Version=EM64L-G09RevD
 .01\State=1-A\HF=-1759.1446794\RMSD=3.482e-09\PG=C01 [X(C3H32O15)]\\@


 IT IS A PROFOUNDLY ERRONEOUS TRUISM ... THAT WE SHOULD CULTIVATE
 THE HABIT OF THINKING OF WHAT WE ARE DOING.
 THE PRECISE OPPOSITE IS THE CASE.
 CIVILIZATION ADVANCES BY EXTENDING THE NUMBER OF IMPORTANT OPERATIONS
 WHICH WE CAN PERFORM WITHOUT THINKING ABOUT THEM.

                                    -- ALFRED NORTH WHITEHEAD
 Job cpu time:       0 days  6 hours 52 minutes  5.9 seconds.
 File lengths (MBytes):  RWF=    792 Int=      0 D2E=      0 Chk=     96 Scr=      2
 Normal termination of Gaussian 09 at Fri Sep 14 18:38:59 2018.
