 Entering Gaussian System, Link 0=g09
 Input=Acroleina_water_15_77c.gjf
 Output=Acroleina_water_15_77c.log
 Initial command:
 /usr/local/pacerepov1/gaussian/G09D01LINDA/g09/l1.exe /nv/hp18/holiveira7/scratch/22412002/Gau-2831.inp -scrdir=/nv/hp18/holiveira7/scratch/22412002/
 Entering Link 1 = /usr/local/pacerepov1/gaussian/G09D01LINDA/g09/l1.exe PID=      2832.
  
 Copyright (c) 1988,1990,1992,1993,1995,1998,2003,2009,2013,
            Gaussian, Inc.  All Rights Reserved.
  
 This is part of the Gaussian(R) 09 program.  It is based on
 the Gaussian(R) 03 system (copyright 2003, Gaussian, Inc.),
 the Gaussian(R) 98 system (copyright 1998, Gaussian, Inc.),
 the Gaussian(R) 94 system (copyright 1995, Gaussian, Inc.),
 the Gaussian 92(TM) system (copyright 1992, Gaussian, Inc.),
 the Gaussian 90(TM) system (copyright 1990, Gaussian, Inc.),
 the Gaussian 88(TM) system (copyright 1988, Gaussian, Inc.),
 the Gaussian 86(TM) system (copyright 1986, Carnegie Mellon
 University), and the Gaussian 82(TM) system (copyright 1983,
 Carnegie Mellon University). Gaussian is a federally registered
 trademark of Gaussian, Inc.
  
 This software contains proprietary and confidential information,
 including trade secrets, belonging to Gaussian, Inc.
  
 This software is provided under written license and may be
 used, copied, transmitted, or stored only in accord with that
 written license.
  
 The following legend is applicable only to US Government
 contracts under FAR:
  
                    RESTRICTED RIGHTS LEGEND
  
 Use, reproduction and disclosure by the US Government is
 subject to restrictions as set forth in subparagraphs (a)
 and (c) of the Commercial Computer Software - Restricted
 Rights clause in FAR 52.227-19.
  
 Gaussian, Inc.
 340 Quinnipiac St., Bldg. 40, Wallingford CT 06492
  
  
 ---------------------------------------------------------------
 Warning -- This program may not be used in any manner that
 competes with the business of Gaussian, Inc. or will provide
 assistance to any competitor of Gaussian, Inc.  The licensee
 of this program is prohibited from giving any competitor of
 Gaussian, Inc. access to this program.  By using this program,
 the user acknowledges that Gaussian, Inc. is engaged in the
 business of creating and licensing software in the field of
 computational chemistry and represents and warrants to the
 licensee that it is not a competitor of Gaussian, Inc. and that
 it will not use this program in any manner prohibited above.
 ---------------------------------------------------------------
  

 Cite this work as:
 Gaussian 09, Revision D.01,
 M. J. Frisch, G. W. Trucks, H. B. Schlegel, G. E. Scuseria, 
 M. A. Robb, J. R. Cheeseman, G. Scalmani, V. Barone, B. Mennucci, 
 G. A. Petersson, H. Nakatsuji, M. Caricato, X. Li, H. P. Hratchian, 
 A. F. Izmaylov, J. Bloino, G. Zheng, J. L. Sonnenberg, M. Hada, 
 M. Ehara, K. Toyota, R. Fukuda, J. Hasegawa, M. Ishida, T. Nakajima, 
 Y. Honda, O. Kitao, H. Nakai, T. Vreven, J. A. Montgomery, Jr., 
 J. E. Peralta, F. Ogliaro, M. Bearpark, J. J. Heyd, E. Brothers, 
 K. N. Kudin, V. N. Staroverov, T. Keith, R. Kobayashi, J. Normand, 
 K. Raghavachari, A. Rendell, J. C. Burant, S. S. Iyengar, J. Tomasi, 
 M. Cossi, N. Rega, J. M. Millam, M. Klene, J. E. Knox, J. B. Cross, 
 V. Bakken, C. Adamo, J. Jaramillo, R. Gomperts, R. E. Stratmann, 
 O. Yazyev, A. J. Austin, R. Cammi, C. Pomelli, J. W. Ochterski, 
 R. L. Martin, K. Morokuma, V. G. Zakrzewski, G. A. Voth, 
 P. Salvador, J. J. Dannenberg, S. Dapprich, A. D. Daniels, 
 O. Farkas, J. B. Foresman, J. V. Ortiz, J. Cioslowski, 
 and D. J. Fox, Gaussian, Inc., Wallingford CT, 2013.
 
 ******************************************
 Gaussian 09:  EM64L-G09RevD.01 24-Apr-2013
                14-Sep-2018 
 ******************************************
 %chk=Acrolina_Din_77.chk
 %nprocshared=10
 Will use up to   10 processors via shared memory.
 -------------------------------------------
 #p td=(nstates=15)/6-31+g(d) lc-wpbe charge
 -------------------------------------------
 1/18=10,28=-2,38=1,125=101/1;
 2/12=2,17=6,18=5,40=1/2;
 3/5=1,6=6,7=11,11=9,16=1,25=1,30=1,74=-41/1,2,8,3;
 4//1;
 5/5=2,38=5/2;
 8/6=1,10=2,108=15/1;
 9/41=15,42=1,70=2/14;
 6/7=2,8=2,9=2,10=2/1;
 99/5=1,9=1/99;
 Leave Link    1 at Fri Sep 14 17:28:35 2018, MaxMem=           0 cpu:         9.0
 (Enter /usr/local/pacerepov1/gaussian/G09D01LINDA/g09/l101.exe)
 ------------------
 Acroleina in Water
 ------------------
 Symbolic Z-matrix:
 Charge =  0 Multiplicity = 1
 C                     0.48515   0.48044  -1.43014 
 H                     1.4614    0.18777  -1.05573 
 H                     0.42924   0.87885  -2.43706 
 C                    -0.60513   0.34656  -0.65843 
 H                    -1.59169   0.63289  -1.01241 
 C                    -0.50852  -0.19911   0.7128 
 H                    -1.45849  -0.27211   1.27244 
 O                     0.54488  -0.56132   1.23652 
 O                    -0.85556   0.70937   3.63856 
 H                    -0.29231   0.67902   2.81283 
 H                    -0.26692   0.66024   4.4455 
 O                     1.4826   -2.08898   2.27628 
 H                     0.97661  -1.28502   1.96376 
 H                     0.84007  -2.77599   2.61561 
 O                     3.53794   3.08793   1.03284 
 H                     2.99446   3.75706   0.52592 
 H                     3.03151   2.7922    1.84285 
 O                     2.45727   4.85304  -0.29064 
 H                     3.08822   5.43949  -0.79854 
 H                     1.54724   4.90787  -0.70163 
 O                     2.65791  -0.89411   4.01835 
 H                     3.57934  -0.69406   3.68516 
 H                     2.18394  -1.47671   3.35807 
 O                    -2.95128  -0.01129   4.43294 
 H                    -2.70122  -0.92566   4.75143 
 H                    -2.17826   0.39484   3.94559 
 O                     3.11261  -3.73463   1.5231 
 H                     2.36082  -3.08633   1.64394 
 H                     3.19303  -4.30748   2.33881 
 O                     0.96706   0.23493   5.4491 
 H                     1.44294   0.97827   5.91922 
 H                     1.5787   -0.1783    4.77445 
 O                     0.40775   5.19759  -1.5659 
 H                     0.57796   5.91207  -2.24454 
 H                    -0.57248   5.14631  -1.37463 
 O                     0.03141  -3.94332   3.31198 
 H                    -0.28027  -4.59129   2.61698 
 H                     0.74977  -4.36668   3.864 
 O                     3.03001   6.02899   1.7311 
 H                     2.85652   5.39421   0.9781 
 H                     2.94428   6.96906   1.40098 
 O                    -0.74737  -5.71613   1.75035 
 H                    -0.21843  -6.01761   0.957 
 H                    -1.72021  -5.87553   1.58238 
 O                     5.78348   3.00095   0.42476 
 H                     5.7744    3.13392  -0.56633 
 H                     4.84434   2.99057   0.76823 
 O                     2.63853  -5.22213  -0.19682 
 H                     2.77275  -4.55269   0.53382 
 H                     3.50478  -5.37411  -0.67282 
 
 NAtoms=     50 NQM=       50 NQMF=       0 NMMI=      0 NMMIF=      0
                NMic=       0 NMicF=      0.
                    Isotopes and Nuclear Properties:
 (Nuclear quadrupole moments (NQMom) in fm**2, nuclear magnetic moments (NMagM)
  in nuclear magnetons)

  Atom         1           2           3           4           5           6           7           8           9          10
 IAtWgt=          12           1           1          12           1          12           1          16          16           1
 AtmWgt=  12.0000000   1.0078250   1.0078250  12.0000000   1.0078250  12.0000000   1.0078250  15.9949146  15.9949146   1.0078250
 NucSpn=           0           1           1           0           1           0           1           0           0           1
 AtZEff=   0.0000000   0.0000000   0.0000000   0.0000000   0.0000000   0.0000000   0.0000000   0.0000000   0.0000000   0.0000000
 NQMom=    0.0000000   0.0000000   0.0000000   0.0000000   0.0000000   0.0000000   0.0000000   0.0000000   0.0000000   0.0000000
 NMagM=    0.0000000   2.7928460   2.7928460   0.0000000   2.7928460   0.0000000   2.7928460   0.0000000   0.0000000   2.7928460
 AtZNuc=   6.0000000   1.0000000   1.0000000   6.0000000   1.0000000   6.0000000   1.0000000   8.0000000   8.0000000   1.0000000

  Atom        11          12          13          14          15          16          17          18          19          20
 IAtWgt=           1          16           1           1          16           1           1          16           1           1
 AtmWgt=   1.0078250  15.9949146   1.0078250   1.0078250  15.9949146   1.0078250   1.0078250  15.9949146   1.0078250   1.0078250
 NucSpn=           1           0           1           1           0           1           1           0           1           1
 AtZEff=   0.0000000   0.0000000   0.0000000   0.0000000   0.0000000   0.0000000   0.0000000   0.0000000   0.0000000   0.0000000
 NQMom=    0.0000000   0.0000000   0.0000000   0.0000000   0.0000000   0.0000000   0.0000000   0.0000000   0.0000000   0.0000000
 NMagM=    2.7928460   0.0000000   2.7928460   2.7928460   0.0000000   2.7928460   2.7928460   0.0000000   2.7928460   2.7928460
 AtZNuc=   1.0000000   8.0000000   1.0000000   1.0000000   8.0000000   1.0000000   1.0000000   8.0000000   1.0000000   1.0000000

  Atom        21          22          23          24          25          26          27          28          29          30
 IAtWgt=          16           1           1          16           1           1          16           1           1          16
 AtmWgt=  15.9949146   1.0078250   1.0078250  15.9949146   1.0078250   1.0078250  15.9949146   1.0078250   1.0078250  15.9949146
 NucSpn=           0           1           1           0           1           1           0           1           1           0
 AtZEff=   0.0000000   0.0000000   0.0000000   0.0000000   0.0000000   0.0000000   0.0000000   0.0000000   0.0000000   0.0000000
 NQMom=    0.0000000   0.0000000   0.0000000   0.0000000   0.0000000   0.0000000   0.0000000   0.0000000   0.0000000   0.0000000
 NMagM=    0.0000000   2.7928460   2.7928460   0.0000000   2.7928460   2.7928460   0.0000000   2.7928460   2.7928460   0.0000000
 AtZNuc=   8.0000000   1.0000000   1.0000000   8.0000000   1.0000000   1.0000000   8.0000000   1.0000000   1.0000000   8.0000000

  Atom        31          32          33          34          35          36          37          38          39          40
 IAtWgt=           1           1          16           1           1          16           1           1          16           1
 AtmWgt=   1.0078250   1.0078250  15.9949146   1.0078250   1.0078250  15.9949146   1.0078250   1.0078250  15.9949146   1.0078250
 NucSpn=           1           1           0           1           1           0           1           1           0           1
 AtZEff=   0.0000000   0.0000000   0.0000000   0.0000000   0.0000000   0.0000000   0.0000000   0.0000000   0.0000000   0.0000000
 NQMom=    0.0000000   0.0000000   0.0000000   0.0000000   0.0000000   0.0000000   0.0000000   0.0000000   0.0000000   0.0000000
 NMagM=    2.7928460   2.7928460   0.0000000   2.7928460   2.7928460   0.0000000   2.7928460   2.7928460   0.0000000   2.7928460
 AtZNuc=   1.0000000   1.0000000   8.0000000   1.0000000   1.0000000   8.0000000   1.0000000   1.0000000   8.0000000   1.0000000

  Atom        41          42          43          44          45          46          47          48          49          50
 IAtWgt=           1          16           1           1          16           1           1          16           1           1
 AtmWgt=   1.0078250  15.9949146   1.0078250   1.0078250  15.9949146   1.0078250   1.0078250  15.9949146   1.0078250   1.0078250
 NucSpn=           1           0           1           1           0           1           1           0           1           1
 AtZEff=   0.0000000   0.0000000   0.0000000   0.0000000   0.0000000   0.0000000   0.0000000   0.0000000   0.0000000   0.0000000
 NQMom=    0.0000000   0.0000000   0.0000000   0.0000000   0.0000000   0.0000000   0.0000000   0.0000000   0.0000000   0.0000000
 NMagM=    2.7928460   0.0000000   2.7928460   2.7928460   0.0000000   2.7928460   2.7928460   0.0000000   2.7928460   2.7928460
 AtZNuc=   1.0000000   8.0000000   1.0000000   1.0000000   8.0000000   1.0000000   1.0000000   8.0000000   1.0000000   1.0000000
 Background charge distribution read from input stream:
 Point Charges:
 XYZ=   -2.9442   -5.9460    1.3071 Q=   -0.8200 A=    0.0000 R=    0.0000 C=    0.0000
 XYZ=   -3.2006   -6.8864    1.0836 Q=    0.4100 A=    0.0000 R=    0.0000 C=    0.0000
 XYZ=   -3.3194   -5.3257    0.6183 Q=    0.4100 A=    0.0000 R=    0.0000 C=    0.0000
 XYZ=   -0.1845   -1.5659    6.3632 Q=   -0.8200 A=    0.0000 R=    0.0000 C=    0.0000
 XYZ=    0.2422   -0.7418    5.9907 Q=    0.4100 A=    0.0000 R=    0.0000 C=    0.0000
 XYZ=   -1.0046   -1.7847    5.8344 Q=    0.4100 A=    0.0000 R=    0.0000 C=    0.0000
 XYZ=   -2.0024   -4.3437    4.5705 Q=   -0.8200 A=    0.0000 R=    0.0000 C=    0.0000
 XYZ=   -1.1033   -4.2183    4.1509 Q=    0.4100 A=    0.0000 R=    0.0000 C=    0.0000
 XYZ=   -1.9410   -5.0365    5.2891 Q=    0.4100 A=    0.0000 R=    0.0000 C=    0.0000
 XYZ=   -5.4313   -4.5838   -3.5626 Q=   -0.8200 A=    0.0000 R=    0.0000 C=    0.0000
 XYZ=   -6.0797   -4.5184   -4.3212 Q=    0.4100 A=    0.0000 R=    0.0000 C=    0.0000
 XYZ=   -4.7579   -3.8481   -3.6355 Q=    0.4100 A=    0.0000 R=    0.0000 C=    0.0000
 XYZ=   -4.6783    1.1351    3.2776 Q=   -0.8200 A=    0.0000 R=    0.0000 C=    0.0000
 XYZ=   -4.2289    1.9344    2.8786 Q=    0.4100 A=    0.0000 R=    0.0000 C=    0.0000
 XYZ=   -4.0208    0.6256    3.8328 Q=    0.4100 A=    0.0000 R=    0.0000 C=    0.0000
 XYZ=    0.5765   -6.5471    0.1063 Q=   -0.8200 A=    0.0000 R=    0.0000 C=    0.0000
 XYZ=    1.4630   -6.1616   -0.1498 Q=    0.4100 A=    0.0000 R=    0.0000 C=    0.0000
 XYZ=    0.2389   -7.1276   -0.6347 Q=    0.4100 A=    0.0000 R=    0.0000 C=    0.0000
 XYZ=    1.1212    6.6963    3.1913 Q=   -0.8200 A=    0.0000 R=    0.0000 C=    0.0000
 XYZ=    0.9369    7.6355    2.9016 Q=    0.4100 A=    0.0000 R=    0.0000 C=    0.0000
 XYZ=    1.5267    6.1869    2.4323 Q=    0.4100 A=    0.0000 R=    0.0000 C=    0.0000
 XYZ=    3.0936    1.1255   -6.7763 Q=   -0.8200 A=    0.0000 R=    0.0000 C=    0.0000
 XYZ=    3.3634    1.9358   -7.2965 Q=    0.4100 A=    0.0000 R=    0.0000 C=    0.0000
 XYZ=    2.1391    1.2148   -6.4917 Q=    0.4100 A=    0.0000 R=    0.0000 C=    0.0000
 XYZ=    3.2934   -1.8988    6.0937 Q=   -0.8200 A=    0.0000 R=    0.0000 C=    0.0000
 XYZ=    2.9107   -1.5843    5.2250 Q=    0.4100 A=    0.0000 R=    0.0000 C=    0.0000
 XYZ=    3.4556   -1.1128    6.6904 Q=    0.4100 A=    0.0000 R=    0.0000 C=    0.0000
 XYZ=    4.3214    0.3492   -4.7765 Q=   -0.8200 A=    0.0000 R=    0.0000 C=    0.0000
 XYZ=    3.7196    0.7910   -5.4418 Q=    0.4100 A=    0.0000 R=    0.0000 C=    0.0000
 XYZ=    4.7195    1.0423   -4.1755 Q=    0.4100 A=    0.0000 R=    0.0000 C=    0.0000
 XYZ=   -4.1126    2.2170   -5.5211 Q=   -0.8200 A=    0.0000 R=    0.0000 C=    0.0000
 XYZ=   -3.8701    1.3884   -5.0164 Q=    0.4100 A=    0.0000 R=    0.0000 C=    0.0000
 XYZ=   -3.4396    2.9318   -5.3313 Q=    0.4100 A=    0.0000 R=    0.0000 C=    0.0000
 XYZ=   -5.1843   -2.9592    2.6358 Q=   -0.8200 A=    0.0000 R=    0.0000 C=    0.0000
 XYZ=   -5.7854   -2.8346    3.4252 Q=    0.4100 A=    0.0000 R=    0.0000 C=    0.0000
 XYZ=   -4.5250   -3.6855    2.8303 Q=    0.4100 A=    0.0000 R=    0.0000 C=    0.0000
 XYZ=    4.9618   -0.0530    3.3569 Q=   -0.8200 A=    0.0000 R=    0.0000 C=    0.0000
 XYZ=    5.0559    0.8789    3.7071 Q=    0.4100 A=    0.0000 R=    0.0000 C=    0.0000
 XYZ=    5.4201   -0.1239    2.4708 Q=    0.4100 A=    0.0000 R=    0.0000 C=    0.0000
 XYZ=   -2.3455   -2.1273    5.3044 Q=   -0.8200 A=    0.0000 R=    0.0000 C=    0.0000
 XYZ=   -2.9051   -2.2355    6.1261 Q=    0.4100 A=    0.0000 R=    0.0000 C=    0.0000
 XYZ=   -2.1664   -3.0254    4.9027 Q=    0.4100 A=    0.0000 R=    0.0000 C=    0.0000
 XYZ=   -5.7283   -0.6552    2.0958 Q=   -0.8200 A=    0.0000 R=    0.0000 C=    0.0000
 XYZ=   -5.0371   -0.0484    2.4883 Q=    0.4100 A=    0.0000 R=    0.0000 C=    0.0000
 XYZ=   -5.4236   -1.6042    2.1771 Q=    0.4100 A=    0.0000 R=    0.0000 C=    0.0000
 XYZ=   -2.1480    5.9730   -1.2740 Q=   -0.8200 A=    0.0000 R=    0.0000 C=    0.0000
 XYZ=   -2.9854    5.5269   -1.5899 Q=    0.4100 A=    0.0000 R=    0.0000 C=    0.0000
 XYZ=   -2.2570    6.2483   -0.3188 Q=    0.4100 A=    0.0000 R=    0.0000 C=    0.0000
 XYZ=    5.2242   -3.4313    0.2822 Q=   -0.8200 A=    0.0000 R=    0.0000 C=    0.0000
 XYZ=    4.3294   -3.1704    0.6445 Q=    0.4100 A=    0.0000 R=    0.0000 C=    0.0000
 XYZ=    5.1292   -4.2518   -0.2815 Q=    0.4100 A=    0.0000 R=    0.0000 C=    0.0000
 XYZ=   -3.8534   -4.6622    3.0659 Q=   -0.8200 A=    0.0000 R=    0.0000 C=    0.0000
 XYZ=   -3.1572   -4.5814    3.7792 Q=    0.4100 A=    0.0000 R=    0.0000 C=    0.0000
 XYZ=   -3.5833   -5.3723    2.4156 Q=    0.4100 A=    0.0000 R=    0.0000 C=    0.0000
 XYZ=   -2.4595    6.5326    1.0551 Q=   -0.8200 A=    0.0000 R=    0.0000 C=    0.0000
 XYZ=   -3.3275    6.0955    1.2908 Q=    0.4100 A=    0.0000 R=    0.0000 C=    0.0000
 XYZ=   -1.7385    6.1876    1.6561 Q=    0.4100 A=    0.0000 R=    0.0000 C=    0.0000
 XYZ=    5.2914   -1.6881   -3.9876 Q=   -0.8200 A=    0.0000 R=    0.0000 C=    0.0000
 XYZ=    5.9304   -1.4806   -3.2469 Q=    0.4100 A=    0.0000 R=    0.0000 C=    0.0000
 XYZ=    4.7582   -0.8709   -4.2065 Q=    0.4100 A=    0.0000 R=    0.0000 C=    0.0000
 XYZ=   -5.3085   -4.8895   -1.0164 Q=   -0.8200 A=    0.0000 R=    0.0000 C=    0.0000
 XYZ=   -5.4981   -4.7027   -1.9804 Q=    0.4100 A=    0.0000 R=    0.0000 C=    0.0000
 XYZ=   -5.3732   -5.8733   -0.8486 Q=    0.4100 A=    0.0000 R=    0.0000 C=    0.0000
 XYZ=   -6.3966   -0.7243   -0.1673 Q=   -0.8200 A=    0.0000 R=    0.0000 C=    0.0000
 XYZ=   -6.0271   -0.4675    0.7257 Q=    0.4100 A=    0.0000 R=    0.0000 C=    0.0000
 XYZ=   -6.4811   -1.7194   -0.2194 Q=    0.4100 A=    0.0000 R=    0.0000 C=    0.0000
 XYZ=   -6.4298   -3.3539    0.3220 Q=   -0.8200 A=    0.0000 R=    0.0000 C=    0.0000
 XYZ=   -5.9504   -4.0150   -0.2553 Q=    0.4100 A=    0.0000 R=    0.0000 C=    0.0000
 XYZ=   -5.9052   -3.2005    1.1594 Q=    0.4100 A=    0.0000 R=    0.0000 C=    0.0000
 XYZ=   -2.6936    4.1059   -5.3512 Q=   -0.8200 A=    0.0000 R=    0.0000 C=    0.0000
 XYZ=   -3.3620    4.6466   -4.8404 Q=    0.4100 A=    0.0000 R=    0.0000 C=    0.0000
 XYZ=   -1.8812    4.6614   -5.5288 Q=    0.4100 A=    0.0000 R=    0.0000 C=    0.0000
 XYZ=    4.0522    6.2570   -1.3824 Q=   -0.8200 A=    0.0000 R=    0.0000 C=    0.0000
 XYZ=    4.5750    7.0132   -0.9889 Q=    0.4100 A=    0.0000 R=    0.0000 C=    0.0000
 XYZ=    4.6650    5.6650   -1.9058 Q=    0.4100 A=    0.0000 R=    0.0000 C=    0.0000
 XYZ=    2.2864    1.7880    6.5791 Q=   -0.8200 A=    0.0000 R=    0.0000 C=    0.0000
 XYZ=    2.8306    0.9664    6.7491 Q=    0.4100 A=    0.0000 R=    0.0000 C=    0.0000
 XYZ=    2.8925    2.5441    6.3322 Q=    0.4100 A=    0.0000 R=    0.0000 C=    0.0000
 XYZ=   -0.7335   -7.9347    2.9208 Q=   -0.8200 A=    0.0000 R=    0.0000 C=    0.0000
 XYZ=   -0.6819   -7.0938    2.3820 Q=    0.4100 A=    0.0000 R=    0.0000 C=    0.0000
 XYZ=    0.1278   -8.4361    2.8391 Q=    0.4100 A=    0.0000 R=    0.0000 C=    0.0000
 XYZ=    1.5332   -3.2039    6.7595 Q=   -0.8200 A=    0.0000 R=    0.0000 C=    0.0000
 XYZ=    2.4600   -2.8448    6.6492 Q=    0.4100 A=    0.0000 R=    0.0000 C=    0.0000
 XYZ=    0.8705   -2.5015    6.4997 Q=    0.4100 A=    0.0000 R=    0.0000 C=    0.0000
 XYZ=    4.9873    6.1472    2.9886 Q=   -0.8200 A=    0.0000 R=    0.0000 C=    0.0000
 XYZ=    4.7109    6.0640    3.9460 Q=    0.4100 A=    0.0000 R=    0.0000 C=    0.0000
 XYZ=    4.1825    6.0640    2.4009 Q=    0.4100 A=    0.0000 R=    0.0000 C=    0.0000
 XYZ=    5.5014   -1.7445    4.9907 Q=   -0.8200 A=    0.0000 R=    0.0000 C=    0.0000
 XYZ=    5.2841   -1.1253    4.2361 Q=    0.4100 A=    0.0000 R=    0.0000 C=    0.0000
 XYZ=    4.6623   -1.9787    5.4817 Q=    0.4100 A=    0.0000 R=    0.0000 C=    0.0000
 XYZ=    5.2056    1.9056    4.6460 Q=   -0.8200 A=    0.0000 R=    0.0000 C=    0.0000
 XYZ=    5.4555    1.2321    5.3417 Q=    0.4100 A=    0.0000 R=    0.0000 C=    0.0000
 XYZ=    4.5575    2.5609    5.0341 Q=    0.4100 A=    0.0000 R=    0.0000 C=    0.0000
 XYZ=    6.2463    3.1536   -2.0743 Q=   -0.8200 A=    0.0000 R=    0.0000 C=    0.0000
 XYZ=    6.0235    4.0489   -2.4600 Q=    0.4100 A=    0.0000 R=    0.0000 C=    0.0000
 XYZ=    6.4429    2.5111   -2.8151 Q=    0.4100 A=    0.0000 R=    0.0000 C=    0.0000
 XYZ=    0.8141    6.8578   -3.3324 Q=   -0.8200 A=    0.0000 R=    0.0000 C=    0.0000
 XYZ=   -0.1342    7.1685   -3.2667 Q=    0.4100 A=    0.0000 R=    0.0000 C=    0.0000
 XYZ=    1.0739    6.7816   -4.2951 Q=    0.4100 A=    0.0000 R=    0.0000 C=    0.0000
 XYZ=    6.5373    4.4494    2.3292 Q=   -0.8200 A=    0.0000 R=    0.0000 C=    0.0000
 XYZ=    5.8641    5.1084    2.6646 Q=    0.4100 A=    0.0000 R=    0.0000 C=    0.0000
 XYZ=    6.1875    4.0066    1.5036 Q=    0.4100 A=    0.0000 R=    0.0000 C=    0.0000
 XYZ=    3.2525   -5.2497    3.3381 Q=   -0.8200 A=    0.0000 R=    0.0000 C=    0.0000
 XYZ=    2.5435   -5.1846    4.0403 Q=    0.4100 A=    0.0000 R=    0.0000 C=    0.0000
 XYZ=    3.0481   -6.0155    2.7282 Q=    0.4100 A=    0.0000 R=    0.0000 C=    0.0000
 XYZ=   -1.3494    7.6198   -2.8354 Q=   -0.8200 A=    0.0000 R=    0.0000 C=    0.0000
 XYZ=   -1.7720    7.0082   -2.1664 Q=    0.4100 A=    0.0000 R=    0.0000 C=    0.0000
 XYZ=   -1.3144    8.5474   -2.4635 Q=    0.4100 A=    0.0000 R=    0.0000 C=    0.0000
 XYZ=   -6.9140    1.0578   -1.5921 Q=   -0.8200 A=    0.0000 R=    0.0000 C=    0.0000
 XYZ=   -6.9084    0.8364   -2.5673 Q=    0.4100 A=    0.0000 R=    0.0000 C=    0.0000
 XYZ=   -6.6159    0.2602   -1.0676 Q=    0.4100 A=    0.0000 R=    0.0000 C=    0.0000
 XYZ=    3.5315    6.1017   -4.8460 Q=   -0.8200 A=    0.0000 R=    0.0000 C=    0.0000
 XYZ=    4.4641    5.9236   -5.1598 Q=    0.4100 A=    0.0000 R=    0.0000 C=    0.0000
 XYZ=    3.4177    5.7441   -3.9191 Q=    0.4100 A=    0.0000 R=    0.0000 C=    0.0000
 XYZ=    1.4744   -4.9435    4.9703 Q=   -0.8200 A=    0.0000 R=    0.0000 C=    0.0000
 XYZ=    0.9382   -5.7829    5.0595 Q=    0.4100 A=    0.0000 R=    0.0000 C=    0.0000
 XYZ=    1.3299   -4.3686    5.7757 Q=    0.4100 A=    0.0000 R=    0.0000 C=    0.0000
 XYZ=    2.0455    7.9703   -1.6918 Q=   -0.8200 A=    0.0000 R=    0.0000 C=    0.0000
 XYZ=    2.9274    7.5818   -1.4247 Q=    0.4100 A=    0.0000 R=    0.0000 C=    0.0000
 XYZ=    1.6696    7.4483   -2.4575 Q=    0.4100 A=    0.0000 R=    0.0000 C=    0.0000
 XYZ=    7.6129    1.5550    1.3611 Q=   -0.8200 A=    0.0000 R=    0.0000 C=    0.0000
 XYZ=    6.8860    2.1609    1.0377 Q=    0.4100 A=    0.0000 R=    0.0000 C=    0.0000
 XYZ=    7.2462    0.6334    1.4890 Q=    0.4100 A=    0.0000 R=    0.0000 C=    0.0000
 XYZ=   -0.8968   -5.1494   -7.8746 Q=   -0.8200 A=    0.0000 R=    0.0000 C=    0.0000
 XYZ=   -0.9441   -4.2203   -7.5076 Q=    0.4100 A=    0.0000 R=    0.0000 C=    0.0000
 XYZ=   -1.5370   -5.7365   -7.3790 Q=    0.4100 A=    0.0000 R=    0.0000 C=    0.0000
 XYZ=   -5.1175   -1.1370    6.0635 Q=   -0.8200 A=    0.0000 R=    0.0000 C=    0.0000
 XYZ=   -4.5229   -0.7002    5.3884 Q=    0.4100 A=    0.0000 R=    0.0000 C=    0.0000
 XYZ=   -4.5599   -1.5233    6.7983 Q=    0.4100 A=    0.0000 R=    0.0000 C=    0.0000
 XYZ=    2.6032    8.1080    0.5392 Q=   -0.8200 A=    0.0000 R=    0.0000 C=    0.0000
 XYZ=    1.9213    8.5087    1.1512 Q=    0.4100 A=    0.0000 R=    0.0000 C=    0.0000
 XYZ=    2.2020    7.9784   -0.3676 Q=    0.4100 A=    0.0000 R=    0.0000 C=    0.0000
 XYZ=   -1.3456   -0.8138    8.1803 Q=   -0.8200 A=    0.0000 R=    0.0000 C=    0.0000
 XYZ=   -0.6340   -1.0582    7.5215 Q=    0.4100 A=    0.0000 R=    0.0000 C=    0.0000
 XYZ=   -1.0659   -1.1033    9.0957 Q=    0.4100 A=    0.0000 R=    0.0000 C=    0.0000
 XYZ=   -4.4741    5.1494   -1.8773 Q=   -0.8200 A=    0.0000 R=    0.0000 C=    0.0000
 XYZ=   -4.7110    5.7787   -1.1371 Q=    0.4100 A=    0.0000 R=    0.0000 C=    0.0000
 XYZ=   -5.0343    4.3242   -1.8053 Q=    0.4100 A=    0.0000 R=    0.0000 C=    0.0000
 XYZ=   -5.2989   -6.8523   -4.0868 Q=   -0.8200 A=    0.0000 R=    0.0000 C=    0.0000
 XYZ=   -5.2629   -5.8770   -3.8685 Q=    0.4100 A=    0.0000 R=    0.0000 C=    0.0000
 XYZ=   -6.2530   -7.1463   -4.1424 Q=    0.4100 A=    0.0000 R=    0.0000 C=    0.0000
 XYZ=    5.2198   -4.3050   -3.4377 Q=   -0.8200 A=    0.0000 R=    0.0000 C=    0.0000
 XYZ=    5.0875   -3.3281   -3.6054 Q=    0.4100 A=    0.0000 R=    0.0000 C=    0.0000
 XYZ=    4.4248   -4.8113   -3.7719 Q=    0.4100 A=    0.0000 R=    0.0000 C=    0.0000
 XYZ=    6.3835    1.4826   -3.6821 Q=   -0.8200 A=    0.0000 R=    0.0000 C=    0.0000
 XYZ=    7.0165    1.2648   -4.4250 Q=    0.4100 A=    0.0000 R=    0.0000 C=    0.0000
 XYZ=    6.3631    0.7256   -3.0290 Q=    0.4100 A=    0.0000 R=    0.0000 C=    0.0000
 XYZ=    6.6177   -0.5278    1.6669 Q=   -0.8200 A=    0.0000 R=    0.0000 C=    0.0000
 XYZ=    6.5448   -0.9772    0.7766 Q=    0.4100 A=    0.0000 R=    0.0000 C=    0.0000
 XYZ=    6.9182   -1.1917    2.3517 Q=    0.4100 A=    0.0000 R=    0.0000 C=    0.0000
 XYZ=    1.3259    3.5306    7.8222 Q=   -0.8200 A=    0.0000 R=    0.0000 C=    0.0000
 XYZ=    1.5800    2.7099    7.3103 Q=    0.4100 A=    0.0000 R=    0.0000 C=    0.0000
 XYZ=    0.4061    3.4175    8.1980 Q=    0.4100 A=    0.0000 R=    0.0000 C=    0.0000
 XYZ=   -6.3919    2.0689    4.3509 Q=   -0.8200 A=    0.0000 R=    0.0000 C=    0.0000
 XYZ=   -5.6706    1.6956    3.7674 Q=    0.4100 A=    0.0000 R=    0.0000 C=    0.0000
 XYZ=   -6.6812    1.3739    5.0092 Q=    0.4100 A=    0.0000 R=    0.0000 C=    0.0000
 XYZ=    4.7278   -0.5276   -7.4505 Q=   -0.8200 A=    0.0000 R=    0.0000 C=    0.0000
 XYZ=    4.7320   -1.3412   -6.8690 Q=    0.4100 A=    0.0000 R=    0.0000 C=    0.0000
 XYZ=    4.1263    0.1643   -7.0511 Q=    0.4100 A=    0.0000 R=    0.0000 C=    0.0000
 XYZ=    4.9488   -5.1847   -1.2149 Q=   -0.8200 A=    0.0000 R=    0.0000 C=    0.0000
 XYZ=    5.7808   -5.7035   -1.0180 Q=    0.4100 A=    0.0000 R=    0.0000 C=    0.0000
 XYZ=    5.0236   -4.7660   -2.1200 Q=    0.4100 A=    0.0000 R=    0.0000 C=    0.0000
 XYZ=   -4.6926    5.3191    1.4835 Q=   -0.8200 A=    0.0000 R=    0.0000 C=    0.0000
 XYZ=   -5.2353    5.8475    0.8306 Q=    0.4100 A=    0.0000 R=    0.0000 C=    0.0000
 XYZ=   -4.9797    5.5442    2.4146 Q=    0.4100 A=    0.0000 R=    0.0000 C=    0.0000
 XYZ=    3.9189    3.3419    6.0167 Q=   -0.8200 A=    0.0000 R=    0.0000 C=    0.0000
 XYZ=    4.7502    3.1914    6.5518 Q=    0.4100 A=    0.0000 R=    0.0000 C=    0.0000
 XYZ=    3.9299    4.2669    5.6369 Q=    0.4100 A=    0.0000 R=    0.0000 C=    0.0000
 XYZ=   -5.3108   -5.8330    4.5088 Q=   -0.8200 A=    0.0000 R=    0.0000 C=    0.0000
 XYZ=   -4.7028   -5.3505    3.8782 Q=    0.4100 A=    0.0000 R=    0.0000 C=    0.0000
 XYZ=   -6.0925   -5.2498    4.7298 Q=    0.4100 A=    0.0000 R=    0.0000 C=    0.0000
 XYZ=   -1.4624    8.6556    0.9064 Q=   -0.8200 A=    0.0000 R=    0.0000 C=    0.0000
 XYZ=   -1.7780    9.2703    1.6293 Q=    0.4100 A=    0.0000 R=    0.0000 C=    0.0000
 XYZ=   -2.0375    7.8376    0.8899 Q=    0.4100 A=    0.0000 R=    0.0000 C=    0.0000
 XYZ=    6.9448   -1.9164   -0.2934 Q=   -0.8200 A=    0.0000 R=    0.0000 C=    0.0000
 XYZ=    6.1477   -2.4828   -0.0837 Q=    0.4100 A=    0.0000 R=    0.0000 C=    0.0000
 XYZ=    7.6821   -2.4948   -0.6423 Q=    0.4100 A=    0.0000 R=    0.0000 C=    0.0000
 XYZ=   -1.2730    6.0001   -5.7613 Q=   -0.8200 A=    0.0000 R=    0.0000 C=    0.0000
 XYZ=   -0.3310    6.1603   -5.4665 Q=    0.4100 A=    0.0000 R=    0.0000 C=    0.0000
 XYZ=   -1.8129    6.8294   -5.6172 Q=    0.4100 A=    0.0000 R=    0.0000 C=    0.0000
 XYZ=    1.8214    7.0664    5.3527 Q=   -0.8200 A=    0.0000 R=    0.0000 C=    0.0000
 XYZ=    1.6200    6.8129    4.4065 Q=    0.4100 A=    0.0000 R=    0.0000 C=    0.0000
 XYZ=    1.2574    6.5196    5.9715 Q=    0.4100 A=    0.0000 R=    0.0000 C=    0.0000
 XYZ=   -6.1196    3.2684   -1.7788 Q=   -0.8200 A=    0.0000 R=    0.0000 C=    0.0000
 XYZ=   -6.3888    2.3285   -1.5685 Q=    0.4100 A=    0.0000 R=    0.0000 C=    0.0000
 XYZ=   -6.6786    3.6145   -2.5323 Q=    0.4100 A=    0.0000 R=    0.0000 C=    0.0000
 XYZ=   -4.1057    2.5786   -7.8210 Q=   -0.8200 A=    0.0000 R=    0.0000 C=    0.0000
 XYZ=   -4.4604    1.7765   -8.3013 Q=    0.4100 A=    0.0000 R=    0.0000 C=    0.0000
 XYZ=   -4.1506    2.4231   -6.8342 Q=    0.4100 A=    0.0000 R=    0.0000 C=    0.0000
 XYZ=   -4.2916    5.5185   -4.2847 Q=   -0.8200 A=    0.0000 R=    0.0000 C=    0.0000
 XYZ=   -4.4340    5.4133   -3.3004 Q=    0.4100 A=    0.0000 R=    0.0000 C=    0.0000
 XYZ=   -4.8960    4.8926   -4.7776 Q=    0.4100 A=    0.0000 R=    0.0000 C=    0.0000
 XYZ=   -6.2379    3.8030    0.7026 Q=   -0.8200 A=    0.0000 R=    0.0000 C=    0.0000
 XYZ=   -5.5061    4.3767    1.0705 Q=    0.4100 A=    0.0000 R=    0.0000 C=    0.0000
 XYZ=   -6.1179    3.7024   -0.2850 Q=    0.4100 A=    0.0000 R=    0.0000 C=    0.0000
 XYZ=    3.7421    0.0034    7.3279 Q=   -0.8200 A=    0.0000 R=    0.0000 C=    0.0000
 XYZ=    4.0869   -0.0917    8.2617 Q=    0.4100 A=    0.0000 R=    0.0000 C=    0.0000
 XYZ=    4.4848    0.2990    6.7270 Q=    0.4100 A=    0.0000 R=    0.0000 C=    0.0000
 XYZ=    5.7797    5.3298   -2.8917 Q=   -0.8200 A=    0.0000 R=    0.0000 C=    0.0000
 XYZ=    6.7184    5.6126   -2.6944 Q=    0.4100 A=    0.0000 R=    0.0000 C=    0.0000
 XYZ=    5.6154    5.3838   -3.8767 Q=    0.4100 A=    0.0000 R=    0.0000 C=    0.0000
 XYZ=   -5.7839    3.7853   -5.4509 Q=   -0.8200 A=    0.0000 R=    0.0000 C=    0.0000
 XYZ=   -6.1067    4.1418   -6.3277 Q=    0.4100 A=    0.0000 R=    0.0000 C=    0.0000
 XYZ=   -5.0920    3.0814   -5.6118 Q=    0.4100 A=    0.0000 R=    0.0000 C=    0.0000
 XYZ=   -7.9281    0.1807    2.3362 Q=   -0.8200 A=    0.0000 R=    0.0000 C=    0.0000
 XYZ=   -7.0855   -0.3022    2.0975 Q=    0.4100 A=    0.0000 R=    0.0000 C=    0.0000
 XYZ=   -7.7580    1.1661    2.3393 Q=    0.4100 A=    0.0000 R=    0.0000 C=    0.0000
 XYZ=    8.2507    2.4738   -0.7913 Q=   -0.8200 A=    0.0000 R=    0.0000 C=    0.0000
 XYZ=    7.3985    2.7580   -1.2307 Q=    0.4100 A=    0.0000 R=    0.0000 C=    0.0000
 XYZ=    8.0425    1.9986    0.0636 Q=    0.4100 A=    0.0000 R=    0.0000 C=    0.0000
 XYZ=   -4.5976   -5.8496   -6.1270 Q=   -0.8200 A=    0.0000 R=    0.0000 C=    0.0000
 XYZ=   -5.1776   -5.0504   -5.9693 Q=    0.4100 A=    0.0000 R=    0.0000 C=    0.0000
 XYZ=   -4.5944   -6.4255   -5.3095 Q=    0.4100 A=    0.0000 R=    0.0000 C=    0.0000
 XYZ=   -1.9986    1.5027    8.1995 Q=   -0.8200 A=    0.0000 R=    0.0000 C=    0.0000
 XYZ=   -1.7472    0.5351    8.1734 Q=    0.4100 A=    0.0000 R=    0.0000 C=    0.0000
 XYZ=   -2.6987    1.6840    7.5088 Q=    0.4100 A=    0.0000 R=    0.0000 C=    0.0000
 XYZ=    5.9891   -4.5429    2.3000 Q=   -0.8200 A=    0.0000 R=    0.0000 C=    0.0000
 XYZ=    5.6899   -4.1064    1.4514 Q=    0.4100 A=    0.0000 R=    0.0000 C=    0.0000
 XYZ=    5.1898   -4.8503    2.8164 Q=    0.4100 A=    0.0000 R=    0.0000 C=    0.0000
 XYZ=   -2.5716   -6.4474   -7.0347 Q=   -0.8200 A=    0.0000 R=    0.0000 C=    0.0000
 XYZ=   -2.7663   -6.5667   -8.0083 Q=    0.4100 A=    0.0000 R=    0.0000 C=    0.0000
 XYZ=   -3.3680   -6.0460   -6.5823 Q=    0.4100 A=    0.0000 R=    0.0000 C=    0.0000
 XYZ=    6.9718   -0.3091   -2.0908 Q=   -0.8200 A=    0.0000 R=    0.0000 C=    0.0000
 XYZ=    7.8970    0.0652   -2.1537 Q=    0.4100 A=    0.0000 R=    0.0000 C=    0.0000
 XYZ=    6.9372   -0.9913   -1.3604 Q=    0.4100 A=    0.0000 R=    0.0000 C=    0.0000
 XYZ=    0.0372   -6.8211    5.1514 Q=   -0.8200 A=    0.0000 R=    0.0000 C=    0.0000
 XYZ=   -0.7701   -6.5379    5.6693 Q=    0.4100 A=    0.0000 R=    0.0000 C=    0.0000
 XYZ=   -0.2500   -7.2540    4.2968 Q=    0.4100 A=    0.0000 R=    0.0000 C=    0.0000
 XYZ=    5.4734   -2.6841   -6.3743 Q=   -0.8200 A=    0.0000 R=    0.0000 C=    0.0000
 XYZ=    5.4665   -2.1921   -5.5037 Q=    0.4100 A=    0.0000 R=    0.0000 C=    0.0000
 XYZ=    6.4024   -2.6935   -6.7444 Q=    0.4100 A=    0.0000 R=    0.0000 C=    0.0000
 XYZ=   -3.4523   -8.0878    0.7792 Q=   -0.8200 A=    0.0000 R=    0.0000 C=    0.0000
 XYZ=   -4.1643   -7.7837    0.1462 Q=    0.4100 A=    0.0000 R=    0.0000 C=    0.0000
 XYZ=   -2.7752   -8.6313    0.2830 Q=    0.4100 A=    0.0000 R=    0.0000 C=    0.0000
 XYZ=    1.2944    6.4024   -5.6106 Q=   -0.8200 A=    0.0000 R=    0.0000 C=    0.0000
 XYZ=    2.2300    6.2877   -5.2766 Q=    0.4100 A=    0.0000 R=    0.0000 C=    0.0000
 XYZ=    1.2050    5.9681   -6.5069 Q=    0.4100 A=    0.0000 R=    0.0000 C=    0.0000
 XYZ=   -5.1378   -7.2458   -0.4837 Q=   -0.8200 A=    0.0000 R=    0.0000 C=    0.0000
 XYZ=   -5.8933   -7.1775    0.1680 Q=    0.4100 A=    0.0000 R=    0.0000 C=    0.0000
 XYZ=   -5.3276   -7.9775   -1.1384 Q=    0.4100 A=    0.0000 R=    0.0000 C=    0.0000
 XYZ=    0.7390    8.7824    2.0012 Q=   -0.8200 A=    0.0000 R=    0.0000 C=    0.0000
 XYZ=    0.7319    9.5845    2.5982 Q=    0.4100 A=    0.0000 R=    0.0000 C=    0.0000
 XYZ=   -0.0949    8.7701    1.4494 Q=    0.4100 A=    0.0000 R=    0.0000 C=    0.0000
 XYZ=    4.0835    5.6025    5.1915 Q=   -0.8200 A=    0.0000 R=    0.0000 C=    0.0000
 XYZ=    4.7580    5.8370    5.8917 Q=    0.4100 A=    0.0000 R=    0.0000 C=    0.0000
 XYZ=    3.2386    6.1105    5.3592 Q=    0.4100 A=    0.0000 R=    0.0000 C=    0.0000
 XYZ=    2.0643    5.0838   -7.5896 Q=   -0.8200 A=    0.0000 R=    0.0000 C=    0.0000
 XYZ=    2.8497    5.7028   -7.5789 Q=    0.4100 A=    0.0000 R=    0.0000 C=    0.0000
 XYZ=    2.3825    4.1439   -7.7133 Q=    0.4100 A=    0.0000 R=    0.0000 C=    0.0000
 XYZ=   -6.4075   -4.3454   -5.5996 Q=   -0.8200 A=    0.0000 R=    0.0000 C=    0.0000
 XYZ=   -6.1537   -3.6506   -6.2727 Q=    0.4100 A=    0.0000 R=    0.0000 C=    0.0000
 XYZ=   -7.2887   -4.7461   -5.8504 Q=    0.4100 A=    0.0000 R=    0.0000 C=    0.0000
 XYZ=    7.1378    3.2286    4.2579 Q=   -0.8200 A=    0.0000 R=    0.0000 C=    0.0000
 XYZ=    6.9013    3.6381    3.3767 Q=    0.4100 A=    0.0000 R=    0.0000 C=    0.0000
 XYZ=    6.3957    2.6285    4.5564 Q=    0.4100 A=    0.0000 R=    0.0000 C=    0.0000
 XYZ=    5.7432    0.4374    6.2284 Q=   -0.8200 A=    0.0000 R=    0.0000 C=    0.0000
 XYZ=    6.3545    0.5944    7.0042 Q=    0.4100 A=    0.0000 R=    0.0000 C=    0.0000
 XYZ=    5.9150   -0.4710    5.8472 Q=    0.4100 A=    0.0000 R=    0.0000 C=    0.0000
 XYZ=   -3.2741   -2.0119    7.4646 Q=   -0.8200 A=    0.0000 R=    0.0000 C=    0.0000
 XYZ=   -2.5870   -1.3916    7.8429 Q=    0.4100 A=    0.0000 R=    0.0000 C=    0.0000
 XYZ=   -3.2076   -2.9001    7.9193 Q=    0.4100 A=    0.0000 R=    0.0000 C=    0.0000
 XYZ=    6.9856   -2.4059    3.0757 Q=   -0.8200 A=    0.0000 R=    0.0000 C=    0.0000
 XYZ=    6.5837   -2.3400    3.9890 Q=    0.4100 A=    0.0000 R=    0.0000 C=    0.0000
 XYZ=    6.6085   -3.2020    2.6023 Q=    0.4100 A=    0.0000 R=    0.0000 C=    0.0000
 XYZ=   -6.5235   -2.4975    4.6633 Q=   -0.8200 A=    0.0000 R=    0.0000 C=    0.0000
 XYZ=   -7.2563   -1.9258    4.2943 Q=    0.4100 A=    0.0000 R=    0.0000 C=    0.0000
 XYZ=   -5.9469   -1.9500    5.2697 Q=    0.4100 A=    0.0000 R=    0.0000 C=    0.0000
 XYZ=    5.0121    8.3289   -0.3116 Q=   -0.8200 A=    0.0000 R=    0.0000 C=    0.0000
 XYZ=    4.1628    8.3783    0.2139 Q=    0.4100 A=    0.0000 R=    0.0000 C=    0.0000
 XYZ=    5.7807    8.5923    0.2714 Q=    0.4100 A=    0.0000 R=    0.0000 C=    0.0000
 XYZ=   -5.5882   -2.9731   -7.3151 Q=   -0.8200 A=    0.0000 R=    0.0000 C=    0.0000
 XYZ=   -5.2709   -3.3987   -8.1626 Q=    0.4100 A=    0.0000 R=    0.0000 C=    0.0000
 XYZ=   -6.1569   -2.1800   -7.5331 Q=    0.4100 A=    0.0000 R=    0.0000 C=    0.0000
 XYZ=    3.1157    3.0472   -8.2394 Q=   -0.8200 A=    0.0000 R=    0.0000 C=    0.0000
 XYZ=    4.1076    2.9595   -8.1467 Q=    0.4100 A=    0.0000 R=    0.0000 C=    0.0000
 XYZ=    2.8302    2.6822   -9.1255 Q=    0.4100 A=    0.0000 R=    0.0000 C=    0.0000
 XYZ=   -2.7997    7.4633   -4.6344 Q=   -0.8200 A=    0.0000 R=    0.0000 C=    0.0000
 XYZ=   -2.0972    7.5279   -3.9256 Q=    0.4100 A=    0.0000 R=    0.0000 C=    0.0000
 XYZ=   -3.3208    6.6187   -4.5111 Q=    0.4100 A=    0.0000 R=    0.0000 C=    0.0000
 XYZ=   -8.0958   -5.0665    1.2107 Q=   -0.8200 A=    0.0000 R=    0.0000 C=    0.0000
 XYZ=   -8.8725   -5.4132    0.6847 Q=    0.4100 A=    0.0000 R=    0.0000 C=    0.0000
 XYZ=   -7.6350   -4.3476    0.6901 Q=    0.4100 A=    0.0000 R=    0.0000 C=    0.0000
 XYZ=   -1.5757    5.6329   -8.0309 Q=   -0.8200 A=    0.0000 R=    0.0000 C=    0.0000
 XYZ=   -1.3309    5.7978   -7.0755 Q=    0.4100 A=    0.0000 R=    0.0000 C=    0.0000
 XYZ=   -2.3121    6.2545   -8.2983 Q=    0.4100 A=    0.0000 R=    0.0000 C=    0.0000
 XYZ=   -1.9425   -5.9705    6.3069 Q=   -0.8200 A=    0.0000 R=    0.0000 C=    0.0000
 XYZ=   -1.5099   -5.6805    7.1606 Q=    0.4100 A=    0.0000 R=    0.0000 C=    0.0000
 XYZ=   -2.9134   -6.1474    6.4686 Q=    0.4100 A=    0.0000 R=    0.0000 C=    0.0000
 XYZ=   -1.4831    9.4678   -1.2004 Q=   -0.8200 A=    0.0000 R=    0.0000 C=    0.0000
 XYZ=   -0.5895    9.8710   -1.3982 Q=    0.4100 A=    0.0000 R=    0.0000 C=    0.0000
 XYZ=   -1.4896    9.1148   -0.2648 Q=    0.4100 A=    0.0000 R=    0.0000 C=    0.0000
 XYZ=   -7.4392    2.4855    2.2391 Q=   -0.8200 A=    0.0000 R=    0.0000 C=    0.0000
 XYZ=   -6.9387    3.0705    1.6007 Q=    0.4100 A=    0.0000 R=    0.0000 C=    0.0000
 XYZ=   -6.9690    2.4765    3.1216 Q=    0.4100 A=    0.0000 R=    0.0000 C=    0.0000
 XYZ=   -5.1273   -8.7617   -2.5070 Q=   -0.8200 A=    0.0000 R=    0.0000 C=    0.0000
 XYZ=   -5.8989   -9.3775   -2.6671 Q=    0.4100 A=    0.0000 R=    0.0000 C=    0.0000
 XYZ=   -5.2140   -7.9586   -3.0964 Q=    0.4100 A=    0.0000 R=    0.0000 C=    0.0000
 XYZ=    1.2401    5.8305    7.5234 Q=   -0.8200 A=    0.0000 R=    0.0000 C=    0.0000
 XYZ=    1.5960    6.2271    8.3697 Q=    0.4100 A=    0.0000 R=    0.0000 C=    0.0000
 XYZ=    1.3465    4.8365    7.5506 Q=    0.4100 A=    0.0000 R=    0.0000 C=    0.0000
 XYZ=   -1.5923   -0.4894   -9.7168 Q=   -0.8200 A=    0.0000 R=    0.0000 C=    0.0000
 XYZ=   -1.4797   -1.4081  -10.0953 Q=    0.4100 A=    0.0000 R=    0.0000 C=    0.0000
 XYZ=   -2.4076   -0.4650   -9.1382 Q=    0.4100 A=    0.0000 R=    0.0000 C=    0.0000
 XYZ=    1.1030   -6.8878   -8.1487 Q=   -0.8200 A=    0.0000 R=    0.0000 C=    0.0000
 XYZ=    0.4188   -6.2002   -7.9056 Q=    0.4100 A=    0.0000 R=    0.0000 C=    0.0000
 XYZ=    1.8410   -6.8768   -7.4739 Q=    0.4100 A=    0.0000 R=    0.0000 C=    0.0000
 XYZ=   -1.8499   -9.3635   -0.6070 Q=   -0.8200 A=    0.0000 R=    0.0000 C=    0.0000
 XYZ=   -1.2283  -10.0615   -0.2513 Q=    0.4100 A=    0.0000 R=    0.0000 C=    0.0000
 XYZ=   -2.4915   -9.7842   -1.2484 Q=    0.4100 A=    0.0000 R=    0.0000 C=    0.0000
 XYZ=   -2.6401    3.8434   -9.0771 Q=   -0.8200 A=    0.0000 R=    0.0000 C=    0.0000
 XYZ=   -3.1703    3.2679   -8.4545 Q=    0.4100 A=    0.0000 R=    0.0000 C=    0.0000
 XYZ=   -2.2545    4.6149   -8.5710 Q=    0.4100 A=    0.0000 R=    0.0000 C=    0.0000
 XYZ=   -5.5520    6.4380   -0.2794 Q=   -0.8200 A=    0.0000 R=    0.0000 C=    0.0000
 XYZ=   -5.4729    7.4309   -0.3695 Q=    0.4100 A=    0.0000 R=    0.0000 C=    0.0000
 XYZ=   -6.3102    6.1115   -0.8438 Q=    0.4100 A=    0.0000 R=    0.0000 C=    0.0000
 XYZ=    0.6250   -3.7580    8.9117 Q=   -0.8200 A=    0.0000 R=    0.0000 C=    0.0000
 XYZ=    1.1595   -3.5370    8.0959 Q=    0.4100 A=    0.0000 R=    0.0000 C=    0.0000
 XYZ=    1.1201   -4.4297    9.4627 Q=    0.4100 A=    0.0000 R=    0.0000 C=    0.0000
 XYZ=   -2.7450   -9.3518    2.6762 Q=   -0.8200 A=    0.0000 R=    0.0000 C=    0.0000
 XYZ=   -1.8374   -8.9537    2.8096 Q=    0.4100 A=    0.0000 R=    0.0000 C=    0.0000
 XYZ=   -3.2089   -8.8802    1.9263 Q=    0.4100 A=    0.0000 R=    0.0000 C=    0.0000
 XYZ=   -0.8553    3.4584    8.8149 Q=   -0.8200 A=    0.0000 R=    0.0000 C=    0.0000
 XYZ=   -1.4595    2.6717    8.6881 Q=    0.4100 A=    0.0000 R=    0.0000 C=    0.0000
 XYZ=   -0.6890    3.5969    9.7912 Q=    0.4100 A=    0.0000 R=    0.0000 C=    0.0000
 XYZ=    8.4498    5.5195    2.3896 Q=   -0.8200 A=    0.0000 R=    0.0000 C=    0.0000
 XYZ=    8.8938    5.2388    3.2406 Q=    0.4100 A=    0.0000 R=    0.0000 C=    0.0000
 XYZ=    7.6086    4.9937    2.2633 Q=    0.4100 A=    0.0000 R=    0.0000 C=    0.0000
 XYZ=    0.5425    0.3357  -10.2393 Q=   -0.8200 A=    0.0000 R=    0.0000 C=    0.0000
 XYZ=    1.3287   -0.2653  -10.0951 Q=    0.4100 A=    0.0000 R=    0.0000 C=    0.0000
 XYZ=   -0.2656   -0.0628   -9.8054 Q=    0.4100 A=    0.0000 R=    0.0000 C=    0.0000
 XYZ=    0.6541   10.2692   -1.8445 Q=   -0.8200 A=    0.0000 R=    0.0000 C=    0.0000
 XYZ=    0.1843   10.3209   -2.7258 Q=    0.4100 A=    0.0000 R=    0.0000 C=    0.0000
 XYZ=    1.3036    9.5090   -1.8572 Q=    0.4100 A=    0.0000 R=    0.0000 C=    0.0000
 XYZ=   -7.2900    4.0976   -3.6639 Q=   -0.8200 A=    0.0000 R=    0.0000 C=    0.0000
 XYZ=   -6.6584    3.9339   -4.4217 Q=    0.4100 A=    0.0000 R=    0.0000 C=    0.0000
 XYZ=   -8.2310    3.9921   -3.9856 Q=    0.4100 A=    0.0000 R=    0.0000 C=    0.0000
 XYZ=   -1.3978   -8.7381   -7.0514 Q=   -0.8200 A=    0.0000 R=    0.0000 C=    0.0000
 XYZ=   -1.6838   -7.7884   -6.9243 Q=    0.4100 A=    0.0000 R=    0.0000 C=    0.0000
 XYZ=   -2.0206   -9.1912   -7.6892 Q=    0.4100 A=    0.0000 R=    0.0000 C=    0.0000
 XYZ=   -6.3119    4.2540    5.2200 Q=   -0.8200 A=    0.0000 R=    0.0000 C=    0.0000
 XYZ=   -6.0344    4.2011    6.1793 Q=    0.4100 A=    0.0000 R=    0.0000 C=    0.0000
 XYZ=   -6.3315    3.3345    4.8275 Q=    0.4100 A=    0.0000 R=    0.0000 C=    0.0000
 XYZ=    7.0181    7.3241    2.8517 Q=   -0.8200 A=    0.0000 R=    0.0000 C=    0.0000
 XYZ=    6.0566    7.0497    2.8711 Q=    0.4100 A=    0.0000 R=    0.0000 C=    0.0000
 XYZ=    7.5884    6.5265    2.6551 Q=    0.4100 A=    0.0000 R=    0.0000 C=    0.0000
 XYZ=   -7.1111    0.2222    5.7645 Q=   -0.8200 A=    0.0000 R=    0.0000 C=    0.0000
 XYZ=   -7.7021   -0.3449    5.1907 Q=    0.4100 A=    0.0000 R=    0.0000 C=    0.0000
 XYZ=   -6.2750   -0.2814    5.9821 Q=    0.4100 A=    0.0000 R=    0.0000 C=    0.0000
 XYZ=    7.4671   -4.6392   -2.8120 Q=   -0.8200 A=    0.0000 R=    0.0000 C=    0.0000
 XYZ=    6.5446   -4.5936   -3.1953 Q=    0.4100 A=    0.0000 R=    0.0000 C=    0.0000
 XYZ=    8.1373   -4.6279   -3.5542 Q=    0.4100 A=    0.0000 R=    0.0000 C=    0.0000
 XYZ=    4.6488   -4.7595   -7.3745 Q=   -0.8200 A=    0.0000 R=    0.0000 C=    0.0000
 XYZ=    5.1890   -4.8158   -8.2141 Q=    0.4100 A=    0.0000 R=    0.0000 C=    0.0000
 XYZ=    4.9478   -3.9703   -6.8380 Q=    0.4100 A=    0.0000 R=    0.0000 C=    0.0000
 XYZ=   -5.3137    5.7774    3.7680 Q=   -0.8200 A=    0.0000 R=    0.0000 C=    0.0000
 XYZ=   -6.1087    6.3333    3.5251 Q=    0.4100 A=    0.0000 R=    0.0000 C=    0.0000
 XYZ=   -5.5932    5.0542    4.3996 Q=    0.4100 A=    0.0000 R=    0.0000 C=    0.0000
 XYZ=   -6.3572   -7.5415    3.1635 Q=   -0.8200 A=    0.0000 R=    0.0000 C=    0.0000
 XYZ=   -5.9572   -6.7232    3.5763 Q=    0.4100 A=    0.0000 R=    0.0000 C=    0.0000
 XYZ=   -5.7708   -8.3297    3.3504 Q=    0.4100 A=    0.0000 R=    0.0000 C=    0.0000
 XYZ=   -7.1233   -4.5044    5.1323 Q=   -0.8200 A=    0.0000 R=    0.0000 C=    0.0000
 XYZ=   -7.8567   -4.7118    4.4850 Q=    0.4100 A=    0.0000 R=    0.0000 C=    0.0000
 XYZ=   -6.8288   -3.5566    5.0097 Q=    0.4100 A=    0.0000 R=    0.0000 C=    0.0000
 XYZ=    6.8388    0.6081   -7.5155 Q=   -0.8200 A=    0.0000 R=    0.0000 C=    0.0000
 XYZ=    7.1399    0.9561   -6.6276 Q=    0.4100 A=    0.0000 R=    0.0000 C=    0.0000
 XYZ=    6.0089    0.0631   -7.3958 Q=    0.4100 A=    0.0000 R=    0.0000 C=    0.0000
 XYZ=   -1.2882    5.4440    7.8358 Q=   -0.8200 A=    0.0000 R=    0.0000 C=    0.0000
 XYZ=   -0.3514    5.7312    7.6361 Q=    0.4100 A=    0.0000 R=    0.0000 C=    0.0000
 XYZ=   -1.2821    4.5077    8.1868 Q=    0.4100 A=    0.0000 R=    0.0000 C=    0.0000
 XYZ=   -5.2505   -5.9277   -8.3654 Q=   -0.8200 A=    0.0000 R=    0.0000 C=    0.0000
 XYZ=   -4.5490   -6.4527   -8.8473 Q=    0.4100 A=    0.0000 R=    0.0000 C=    0.0000
 XYZ=   -4.9793   -5.8070   -7.4105 Q=    0.4100 A=    0.0000 R=    0.0000 C=    0.0000
 XYZ=   -9.3199    1.4144   -1.2527 Q=   -0.8200 A=    0.0000 R=    0.0000 C=    0.0000
 XYZ=   -9.4745    2.4006   -1.1919 Q=    0.4100 A=    0.0000 R=    0.0000 C=    0.0000
 XYZ=   -8.3369    1.2304   -1.2508 Q=    0.4100 A=    0.0000 R=    0.0000 C=    0.0000
 XYZ=   -6.8583   -7.0186    1.0302 Q=   -0.8200 A=    0.0000 R=    0.0000 C=    0.0000
 XYZ=   -7.3807   -6.1693    0.9537 Q=    0.4100 A=    0.0000 R=    0.0000 C=    0.0000
 XYZ=   -6.7818   -7.2772    1.9932 Q=    0.4100 A=    0.0000 R=    0.0000 C=    0.0000
 XYZ=   -4.2122   -6.4878    6.5652 Q=   -0.8200 A=    0.0000 R=    0.0000 C=    0.0000
 XYZ=   -4.5987   -6.2208    5.6824 Q=    0.4100 A=    0.0000 R=    0.0000 C=    0.0000
 XYZ=   -4.6961   -6.0107    7.2988 Q=    0.4100 A=    0.0000 R=    0.0000 C=    0.0000
 XYZ=    1.0627   -2.7392   -9.6385 Q=   -0.8200 A=    0.0000 R=    0.0000 C=    0.0000
 XYZ=    1.7584   -2.1727  -10.0803 Q=    0.4100 A=    0.0000 R=    0.0000 C=    0.0000
 XYZ=    1.3687   -3.6912   -9.6232 Q=    0.4100 A=    0.0000 R=    0.0000 C=    0.0000
 XYZ=    9.2341    0.2982   -1.7722 Q=   -0.8200 A=    0.0000 R=    0.0000 C=    0.0000
 XYZ=    8.7790    1.1129   -1.4127 Q=    0.4100 A=    0.0000 R=    0.0000 C=    0.0000
 XYZ=    9.9141   -0.0221   -1.1125 Q=    0.4100 A=    0.0000 R=    0.0000 C=    0.0000
 XYZ=    3.3151   -6.6768   -6.9784 Q=   -0.8200 A=    0.0000 R=    0.0000 C=    0.0000
 XYZ=    3.9441   -5.9092   -7.1018 Q=    0.4100 A=    0.0000 R=    0.0000 C=    0.0000
 XYZ=    3.7879   -7.5323   -7.1895 Q=    0.4100 A=    0.0000 R=    0.0000 C=    0.0000
 XYZ=    0.3292    5.2446   -9.3319 Q=   -0.8200 A=    0.0000 R=    0.0000 C=    0.0000
 XYZ=   -0.4886    5.2886   -8.7581 Q=    0.4100 A=    0.0000 R=    0.0000 C=    0.0000
 XYZ=    1.1351    5.1143   -8.7543 Q=    0.4100 A=    0.0000 R=    0.0000 C=    0.0000
 XYZ=    1.9484    2.2311  -10.1964 Q=   -0.8200 A=    0.0000 R=    0.0000 C=    0.0000
 XYZ=    1.5151    2.9917  -10.6799 Q=    0.4100 A=    0.0000 R=    0.0000 C=    0.0000
 XYZ=    1.2915    1.4842  -10.0934 Q=    0.4100 A=    0.0000 R=    0.0000 C=    0.0000
 XYZ=   -1.4560   -5.7127  -10.1265 Q=   -0.8200 A=    0.0000 R=    0.0000 C=    0.0000
 XYZ=   -2.0905   -5.0608  -10.5418 Q=    0.4100 A=    0.0000 R=    0.0000 C=    0.0000
 XYZ=   -1.3021   -5.4647   -9.1700 Q=    0.4100 A=    0.0000 R=    0.0000 C=    0.0000
 XYZ=    4.5649   -0.9232   -9.7761 Q=   -0.8200 A=    0.0000 R=    0.0000 C=    0.0000
 XYZ=    4.6067   -0.7550   -8.7912 Q=    0.4100 A=    0.0000 R=    0.0000 C=    0.0000
 XYZ=    5.4840   -1.1144  -10.1208 Q=    0.4100 A=    0.0000 R=    0.0000 C=    0.0000
 XYZ=    9.1168    4.6688   -0.9879 Q=   -0.8200 A=    0.0000 R=    0.0000 C=    0.0000
 XYZ=    8.7991    3.7207   -0.9721 Q=    0.4100 A=    0.0000 R=    0.0000 C=    0.0000
 XYZ=    9.6330    4.8613   -0.1534 Q=    0.4100 A=    0.0000 R=    0.0000 C=    0.0000
 XYZ=    0.6224    9.1495    5.3234 Q=   -0.8200 A=    0.0000 R=    0.0000 C=    0.0000
 XYZ=    1.2359    8.3627    5.2552 Q=    0.4100 A=    0.0000 R=    0.0000 C=    0.0000
 XYZ=   -0.2863    8.8402    5.6040 Q=    0.4100 A=    0.0000 R=    0.0000 C=    0.0000
 XYZ=    2.3995    3.9285    9.7397 Q=   -0.8200 A=    0.0000 R=    0.0000 C=    0.0000
 XYZ=    3.3864    3.7867    9.6619 Q=    0.4100 A=    0.0000 R=    0.0000 C=    0.0000
 XYZ=    1.9807    3.8606    8.8341 Q=    0.4100 A=    0.0000 R=    0.0000 C=    0.0000
 XYZ=   -4.7917    0.5353   -8.8274 Q=   -0.8200 A=    0.0000 R=    0.0000 C=    0.0000
 XYZ=   -5.4543   -0.2041   -8.7084 Q=    0.4100 A=    0.0000 R=    0.0000 C=    0.0000
 XYZ=   -4.5030    0.5733   -9.7841 Q=    0.4100 A=    0.0000 R=    0.0000 C=    0.0000
 XYZ=    5.4724    2.7787   -8.0132 Q=   -0.8200 A=    0.0000 R=    0.0000 C=    0.0000
 XYZ=    6.0615    3.4471   -7.5590 Q=    0.4100 A=    0.0000 R=    0.0000 C=    0.0000
 XYZ=    5.9722    1.9209   -8.1330 Q=    0.4100 A=    0.0000 R=    0.0000 C=    0.0000
 XYZ=   -5.5881    4.3835   -7.8717 Q=   -0.8200 A=    0.0000 R=    0.0000 C=    0.0000
 XYZ=   -5.5514    5.0944   -8.5740 Q=    0.4100 A=    0.0000 R=    0.0000 C=    0.0000
 XYZ=   -4.8390    3.7362   -8.0133 Q=    0.4100 A=    0.0000 R=    0.0000 C=    0.0000
 XYZ=    5.9081    5.8292   -5.3296 Q=   -0.8200 A=    0.0000 R=    0.0000 C=    0.0000
 XYZ=    6.4807    6.6489   -5.3145 Q=    0.4100 A=    0.0000 R=    0.0000 C=    0.0000
 XYZ=    6.2725    5.1804   -5.9977 Q=    0.4100 A=    0.0000 R=    0.0000 C=    0.0000
 XYZ=   -4.3782    7.2353    5.3415 Q=   -0.8200 A=    0.0000 R=    0.0000 C=    0.0000
 XYZ=   -5.1955    7.7469    5.6069 Q=    0.4100 A=    0.0000 R=    0.0000 C=    0.0000
 XYZ=   -4.6170    6.5688    4.6353 Q=    0.4100 A=    0.0000 R=    0.0000 C=    0.0000
 XYZ=   -1.0983   -2.4656  -10.5877 Q=   -0.8200 A=    0.0000 R=    0.0000 C=    0.0000
 XYZ=   -0.2154   -2.6170  -10.1431 Q=    0.4100 A=    0.0000 R=    0.0000 C=    0.0000
 XYZ=   -0.9832   -2.5075  -11.5802 Q=    0.4100 A=    0.0000 R=    0.0000 C=    0.0000
 XYZ=   -7.7486    5.5261    1.5832 Q=   -0.8200 A=    0.0000 R=    0.0000 C=    0.0000
 XYZ=   -7.0992    4.9910    1.0428 Q=    0.4100 A=    0.0000 R=    0.0000 C=    0.0000
 XYZ=   -8.5334    4.9545    1.8228 Q=    0.4100 A=    0.0000 R=    0.0000 C=    0.0000
 XYZ=   10.0307    1.3141    1.8004 Q=   -0.8200 A=    0.0000 R=    0.0000 C=    0.0000
 XYZ=   10.2985    1.4406    2.7556 Q=    0.4100 A=    0.0000 R=    0.0000 C=    0.0000
 XYZ=    9.0545    1.5064    1.6997 Q=    0.4100 A=    0.0000 R=    0.0000 C=    0.0000
 XYZ=   -8.4541   -1.1979    4.2765 Q=   -0.8200 A=    0.0000 R=    0.0000 C=    0.0000
 XYZ=   -8.4801   -0.7086    3.4048 Q=    0.4100 A=    0.0000 R=    0.0000 C=    0.0000
 XYZ=   -9.1852   -1.8798    4.2979 Q=    0.4100 A=    0.0000 R=    0.0000 C=    0.0000
 XYZ=    2.0664   -4.9371   -9.4066 Q=   -0.8200 A=    0.0000 R=    0.0000 C=    0.0000
 XYZ=    1.8327   -5.7964   -8.9515 Q=    0.4100 A=    0.0000 R=    0.0000 C=    0.0000
 XYZ=    2.8459   -4.5157   -8.9431 Q=    0.4100 A=    0.0000 R=    0.0000 C=    0.0000
 XYZ=    7.8370    1.2682   -5.5429 Q=   -0.8200 A=    0.0000 R=    0.0000 C=    0.0000
 XYZ=    8.1976    2.1472   -5.2308 Q=    0.4100 A=    0.0000 R=    0.0000 C=    0.0000
 XYZ=    8.5301    0.5589   -5.4139 Q=    0.4100 A=    0.0000 R=    0.0000 C=    0.0000
 XYZ=   -3.5645  -10.3735   -2.1079 Q=   -0.8200 A=    0.0000 R=    0.0000 C=    0.0000
 XYZ=   -3.1952  -10.7411   -2.9615 Q=    0.4100 A=    0.0000 R=    0.0000 C=    0.0000
 XYZ=   -4.2780   -9.7039   -2.3145 Q=    0.4100 A=    0.0000 R=    0.0000 C=    0.0000
 XYZ=    5.8705    3.0955    7.4034 Q=   -0.8200 A=    0.0000 R=    0.0000 C=    0.0000
 XYZ=    6.5169    3.7264    6.9742 Q=    0.4100 A=    0.0000 R=    0.0000 C=    0.0000
 XYZ=    5.5078    3.5075    8.2394 Q=    0.4100 A=    0.0000 R=    0.0000 C=    0.0000
 XYZ=   -0.5444   -2.0927   10.0763 Q=   -0.8200 A=    0.0000 R=    0.0000 C=    0.0000
 XYZ=   -0.1313   -2.7810    9.4800 Q=    0.4100 A=    0.0000 R=    0.0000 C=    0.0000
 XYZ=   -1.4038   -2.4451   10.4467 Q=    0.4100 A=    0.0000 R=    0.0000 C=    0.0000
 XYZ=   -9.8843    0.5368    1.0309 Q=   -0.8200 A=    0.0000 R=    0.0000 C=    0.0000
 XYZ=   -9.6672    0.6058    0.0572 Q=    0.4100 A=    0.0000 R=    0.0000 C=    0.0000
 XYZ=   -9.0571    0.3006    1.5409 Q=    0.4100 A=    0.0000 R=    0.0000 C=    0.0000
 XYZ=    8.5029   -3.5536   -1.0005 Q=   -0.8200 A=    0.0000 R=    0.0000 C=    0.0000
 XYZ=    9.3865   -3.8831   -1.3331 Q=    0.4100 A=    0.0000 R=    0.0000 C=    0.0000
 XYZ=    7.7789   -3.8591   -1.6190 Q=    0.4100 A=    0.0000 R=    0.0000 C=    0.0000
 XYZ=    7.9738    6.1948   -2.1859 Q=   -0.8200 A=    0.0000 R=    0.0000 C=    0.0000
 XYZ=    8.5035    5.5137   -1.6803 Q=    0.4100 A=    0.0000 R=    0.0000 C=    0.0000
 XYZ=    8.0125    7.0709   -1.7053 Q=    0.4100 A=    0.0000 R=    0.0000 C=    0.0000
 XYZ=   -1.2318   -5.1287    8.4429 Q=   -0.8200 A=    0.0000 R=    0.0000 C=    0.0000
 XYZ=   -0.4472   -4.5406    8.6394 Q=    0.4100 A=    0.0000 R=    0.0000 C=    0.0000
 XYZ=   -2.0685   -4.5811    8.4486 Q=    0.4100 A=    0.0000 R=    0.0000 C=    0.0000
 XYZ=   -3.3493    6.7402    7.3938 Q=   -0.8200 A=    0.0000 R=    0.0000 C=    0.0000
 XYZ=   -3.5905    6.9016    6.4368 Q=    0.4100 A=    0.0000 R=    0.0000 C=    0.0000
 XYZ=   -2.5116    6.1960    7.4392 Q=    0.4100 A=    0.0000 R=    0.0000 C=    0.0000
 XYZ=   -1.3146  -10.3476   -5.4082 Q=   -0.8200 A=    0.0000 R=    0.0000 C=    0.0000
 XYZ=   -0.5870  -10.0976   -4.7694 Q=    0.4100 A=    0.0000 R=    0.0000 C=    0.0000
 XYZ=   -1.3692   -9.6634   -6.1355 Q=    0.4100 A=    0.0000 R=    0.0000 C=    0.0000
 XYZ=   -7.5573    5.7743   -2.0725 Q=   -0.8200 A=    0.0000 R=    0.0000 C=    0.0000
 XYZ=   -7.4069    6.6159   -2.5913 Q=    0.4100 A=    0.0000 R=    0.0000 C=    0.0000
 XYZ=   -7.5157    4.9896   -2.6910 Q=    0.4100 A=    0.0000 R=    0.0000 C=    0.0000
 XYZ=    9.1280    4.2360    4.4968 Q=   -0.8200 A=    0.0000 R=    0.0000 C=    0.0000
 XYZ=    8.2910    3.7557    4.2346 Q=    0.4100 A=    0.0000 R=    0.0000 C=    0.0000
 XYZ=    9.9026    3.6052    4.4506 Q=    0.4100 A=    0.0000 R=    0.0000 C=    0.0000
 XYZ=    8.0956   -5.5117    2.0626 Q=   -0.8200 A=    0.0000 R=    0.0000 C=    0.0000
 XYZ=    8.7456   -4.7756    1.8736 Q=    0.4100 A=    0.0000 R=    0.0000 C=    0.0000
 XYZ=    7.2211   -5.1191    2.3472 Q=    0.4100 A=    0.0000 R=    0.0000 C=    0.0000
 XYZ=   -1.4338    8.6841    6.0184 Q=   -0.8200 A=    0.0000 R=    0.0000 C=    0.0000
 XYZ=   -1.9594    8.5526    5.1778 Q=    0.4100 A=    0.0000 R=    0.0000 C=    0.0000
 XYZ=   -1.9914    9.1770    6.6864 Q=    0.4100 A=    0.0000 R=    0.0000 C=    0.0000
 XYZ=   -4.8531   -9.3442    3.6103 Q=   -0.8200 A=    0.0000 R=    0.0000 C=    0.0000
 XYZ=   -5.2501  -10.2618    3.6278 Q=    0.4100 A=    0.0000 R=    0.0000 C=    0.0000
 XYZ=   -3.9453   -9.3817    3.1926 Q=    0.4100 A=    0.0000 R=    0.0000 C=    0.0000
 XYZ=   -8.8954   -4.9786    3.5011 Q=   -0.8200 A=    0.0000 R=    0.0000 C=    0.0000
 XYZ=   -8.5828   -5.0285    2.5525 Q=    0.4100 A=    0.0000 R=    0.0000 C=    0.0000
 XYZ=   -9.4011   -5.8106    3.7296 Q=    0.4100 A=    0.0000 R=    0.0000 C=    0.0000
 XYZ=    6.8593    1.1404    8.0461 Q=   -0.8200 A=    0.0000 R=    0.0000 C=    0.0000
 XYZ=    6.4556    1.9779    7.6777 Q=    0.4100 A=    0.0000 R=    0.0000 C=    0.0000
 XYZ=    7.7739    1.3384    8.3985 Q=    0.4100 A=    0.0000 R=    0.0000 C=    0.0000
 XYZ=   -3.1594    8.9928    4.3405 Q=   -0.8200 A=    0.0000 R=    0.0000 C=    0.0000
 XYZ=   -3.6609    8.1918    4.6674 Q=    0.4100 A=    0.0000 R=    0.0000 C=    0.0000
 XYZ=   -3.6583    9.8229    4.5897 Q=    0.4100 A=    0.0000 R=    0.0000 C=    0.0000
 XYZ=   -5.0030   -3.9345   -9.4925 Q=   -0.8200 A=    0.0000 R=    0.0000 C=    0.0000
 XYZ=   -4.0857   -3.8938   -9.8888 Q=    0.4100 A=    0.0000 R=    0.0000 C=    0.0000
 XYZ=   -5.1613   -4.8454   -9.1114 Q=    0.4100 A=    0.0000 R=    0.0000 C=    0.0000
 XYZ=   -3.6890   10.2325   -1.8411 Q=   -0.8200 A=    0.0000 R=    0.0000 C=    0.0000
 XYZ=   -4.0292   11.0360   -1.3527 Q=    0.4100 A=    0.0000 R=    0.0000 C=    0.0000
 XYZ=   -2.7459   10.0486   -1.5641 Q=    0.4100 A=    0.0000 R=    0.0000 C=    0.0000
 XYZ=    6.9166    4.3665   -6.7245 Q=   -0.8200 A=    0.0000 R=    0.0000 C=    0.0000
 XYZ=    7.5040    5.0437   -7.1676 Q=    0.4100 A=    0.0000 R=    0.0000 C=    0.0000
 XYZ=    7.4251    3.9118   -5.9932 Q=    0.4100 A=    0.0000 R=    0.0000 C=    0.0000
 XYZ=   -1.9029   10.1330    2.6994 Q=   -0.8200 A=    0.0000 R=    0.0000 C=    0.0000
 XYZ=   -2.4737    9.6457    3.3604 Q=    0.4100 A=    0.0000 R=    0.0000 C=    0.0000
 XYZ=   -2.2615   11.0570    2.5668 Q=    0.4100 A=    0.0000 R=    0.0000 C=    0.0000
 XYZ=    7.2665   -6.1925   -1.2612 Q=   -0.8200 A=    0.0000 R=    0.0000 C=    0.0000
 XYZ=    8.0820   -6.3020   -0.6929 Q=    0.4100 A=    0.0000 R=    0.0000 C=    0.0000
 XYZ=    7.4533   -5.5317   -1.9883 Q=    0.4100 A=    0.0000 R=    0.0000 C=    0.0000
 XYZ=   -6.6375   -0.9600   -8.6396 Q=   -0.8200 A=    0.0000 R=    0.0000 C=    0.0000
 XYZ=   -7.5537   -0.5591   -8.6457 Q=    0.4100 A=    0.0000 R=    0.0000 C=    0.0000
 XYZ=   -6.6133   -1.7453   -9.2583 Q=    0.4100 A=    0.0000 R=    0.0000 C=    0.0000
 XYZ=    7.8575    8.2328   -1.1693 Q=   -0.8200 A=    0.0000 R=    0.0000 C=    0.0000
 XYZ=    6.9024    8.3043   -1.4568 Q=    0.4100 A=    0.0000 R=    0.0000 C=    0.0000
 XYZ=    7.9524    8.5847   -0.2381 Q=    0.4100 A=    0.0000 R=    0.0000 C=    0.0000
 XYZ=    6.8906    8.8259    1.0394 Q=   -0.8200 A=    0.0000 R=    0.0000 C=    0.0000
 XYZ=    7.5486    9.5707    1.1515 Q=    0.4100 A=    0.0000 R=    0.0000 C=    0.0000
 XYZ=    6.8579    8.2813    1.8775 Q=    0.4100 A=    0.0000 R=    0.0000 C=    0.0000
 XYZ=   -2.9074   -3.8433  -10.8218 Q=   -0.8200 A=    0.0000 R=    0.0000 C=    0.0000
 XYZ=   -3.1200   -3.7583  -11.7952 Q=    0.4100 A=    0.0000 R=    0.0000 C=    0.0000
 XYZ=   -2.1062   -3.2851  -10.6057 Q=    0.4100 A=    0.0000 R=    0.0000 C=    0.0000
 XYZ=    2.4819   -1.3487  -10.6299 Q=   -0.8200 A=    0.0000 R=    0.0000 C=    0.0000
 XYZ=    3.3887   -1.1415  -10.2629 Q=    0.4100 A=    0.0000 R=    0.0000 C=    0.0000
 XYZ=    2.5452   -1.4825  -11.6189 Q=    0.4100 A=    0.0000 R=    0.0000 C=    0.0000
 XYZ=    9.2528   -3.4006    1.2311 Q=   -0.8200 A=    0.0000 R=    0.0000 C=    0.0000
 XYZ=    8.8538   -2.6785    1.7962 Q=    0.4100 A=    0.0000 R=    0.0000 C=    0.0000
 XYZ=    8.8020   -3.4126    0.3385 Q=    0.4100 A=    0.0000 R=    0.0000 C=    0.0000
 XYZ=   -2.4827    1.0420  -11.5139 Q=   -0.8200 A=    0.0000 R=    0.0000 C=    0.0000
 XYZ=   -1.9490    0.5095  -10.8568 Q=    0.4100 A=    0.0000 R=    0.0000 C=    0.0000
 XYZ=   -3.4574    0.9285  -11.3213 Q=    0.4100 A=    0.0000 R=    0.0000 C=    0.0000
 XYZ=    0.4167   10.5041    3.3983 Q=   -0.8200 A=    0.0000 R=    0.0000 C=    0.0000
 XYZ=   -0.5490   10.3446    3.1932 Q=    0.4100 A=    0.0000 R=    0.0000 C=    0.0000
 XYZ=    0.6473   10.0746    4.2715 Q=    0.4100 A=    0.0000 R=    0.0000 C=    0.0000
 XYZ=    0.0068   10.1622   -4.0895 Q=   -0.8200 A=    0.0000 R=    0.0000 C=    0.0000
 XYZ=   -0.7145   10.7111   -4.5119 Q=    0.4100 A=    0.0000 R=    0.0000 C=    0.0000
 XYZ=    0.4683    9.6206   -4.7922 Q=    0.4100 A=    0.0000 R=    0.0000 C=    0.0000
 XYZ=    5.2328   -0.1991    9.1479 Q=   -0.8200 A=    0.0000 R=    0.0000 C=    0.0000
 XYZ=    5.9472    0.3712    8.7425 Q=    0.4100 A=    0.0000 R=    0.0000 C=    0.0000
 XYZ=    5.5727   -1.1337    9.2539 Q=    0.4100 A=    0.0000 R=    0.0000 C=    0.0000
 XYZ=   -3.2316   -4.0184    8.8178 Q=   -0.8200 A=    0.0000 R=    0.0000 C=    0.0000
 XYZ=   -3.9307   -4.7273    8.9108 Q=    0.4100 A=    0.0000 R=    0.0000 C=    0.0000
 XYZ=   -2.9281   -3.7285    9.7255 Q=    0.4100 A=    0.0000 R=    0.0000 C=    0.0000
 XYZ=   -5.5351    8.6845   -0.6649 Q=   -0.8200 A=    0.0000 R=    0.0000 C=    0.0000
 XYZ=   -4.8962    9.2117   -1.2251 Q=    0.4100 A=    0.0000 R=    0.0000 C=    0.0000
 XYZ=   -5.9926    9.2944   -0.0178 Q=    0.4100 A=    0.0000 R=    0.0000 C=    0.0000
 XYZ=   -7.5091    1.9676    7.3796 Q=   -0.8200 A=    0.0000 R=    0.0000 C=    0.0000
 XYZ=   -7.4178    1.2893    6.6505 Q=    0.4100 A=    0.0000 R=    0.0000 C=    0.0000
 XYZ=   -6.7960    2.6616    7.2804 Q=    0.4100 A=    0.0000 R=    0.0000 C=    0.0000
 XYZ=   -2.8440    3.6088  -11.2630 Q=   -0.8200 A=    0.0000 R=    0.0000 C=    0.0000
 XYZ=   -2.7310    3.7783  -10.2840 Q=    0.4100 A=    0.0000 R=    0.0000 C=    0.0000
 XYZ=   -2.6763    2.6419  -11.4554 Q=    0.4100 A=    0.0000 R=    0.0000 C=    0.0000
 XYZ=   -3.3163   -6.9816   -9.1732 Q=   -0.8200 A=    0.0000 R=    0.0000 C=    0.0000
 XYZ=   -2.8005   -6.6092   -9.9447 Q=    0.4100 A=    0.0000 R=    0.0000 C=    0.0000
 XYZ=   -3.2050   -7.9750   -9.1462 Q=    0.4100 A=    0.0000 R=    0.0000 C=    0.0000
 XYZ=   -3.7008    9.9034   -4.0497 Q=   -0.8200 A=    0.0000 R=    0.0000 C=    0.0000
 XYZ=   -3.8060    9.9409   -3.0559 Q=    0.4100 A=    0.0000 R=    0.0000 C=    0.0000
 XYZ=   -3.6216    8.9500   -4.3408 Q=    0.4100 A=    0.0000 R=    0.0000 C=    0.0000
 XYZ=   -7.2363   -4.2239    7.4723 Q=   -0.8200 A=    0.0000 R=    0.0000 C=    0.0000
 XYZ=   -7.1429   -4.3270    6.4820 Q=    0.4100 A=    0.0000 R=    0.0000 C=    0.0000
 XYZ=   -7.7319   -3.3790    7.6741 Q=    0.4100 A=    0.0000 R=    0.0000 C=    0.0000
 XYZ=   -7.5081   -8.0818   -4.0951 Q=   -0.8200 A=    0.0000 R=    0.0000 C=    0.0000
 XYZ=   -6.9970   -8.8253   -3.6637 Q=    0.4100 A=    0.0000 R=    0.0000 C=    0.0000
 XYZ=   -7.8605   -8.3888   -4.9792 Q=    0.4100 A=    0.0000 R=    0.0000 C=    0.0000
 XYZ=   -6.0124    4.0292    7.6026 Q=   -0.8200 A=    0.0000 R=    0.0000 C=    0.0000
 XYZ=   -6.0878    3.4008    8.3769 Q=    0.4100 A=    0.0000 R=    0.0000 C=    0.0000
 XYZ=   -5.9954    4.9710    7.9382 Q=    0.4100 A=    0.0000 R=    0.0000 C=    0.0000
 XYZ=   -8.9540   -8.1551    0.2871 Q=   -0.8200 A=    0.0000 R=    0.0000 C=    0.0000
 XYZ=   -9.7052   -7.5189    0.1110 Q=    0.4100 A=    0.0000 R=    0.0000 C=    0.0000
 XYZ=   -8.1075   -7.6412    0.4256 Q=    0.4100 A=    0.0000 R=    0.0000 C=    0.0000
 XYZ=   -8.4509   -5.2747   -6.3410 Q=   -0.8200 A=    0.0000 R=    0.0000 C=    0.0000
 XYZ=   -9.2815   -4.9309   -6.7791 Q=    0.4100 A=    0.0000 R=    0.0000 C=    0.0000
 XYZ=   -8.6963   -5.7923   -5.5212 Q=    0.4100 A=    0.0000 R=    0.0000 C=    0.0000
 XYZ=    5.8739    6.3580    6.8122 Q=   -0.8200 A=    0.0000 R=    0.0000 C=    0.0000
 XYZ=    6.5349    7.1084    6.8154 Q=    0.4100 A=    0.0000 R=    0.0000 C=    0.0000
 XYZ=    6.3602    5.4854    6.8566 Q=    0.4100 A=    0.0000 R=    0.0000 C=    0.0000
 XYZ=    9.2284    5.8029   -4.1080 Q=   -0.8200 A=    0.0000 R=    0.0000 C=    0.0000
 XYZ=    8.6146    6.0460   -3.3568 Q=    0.4100 A=    0.0000 R=    0.0000 C=    0.0000
 XYZ=   10.1748    5.8259   -3.7857 Q=    0.4100 A=    0.0000 R=    0.0000 C=    0.0000
 XYZ=   -9.7733   -5.6629   -0.1962 Q=   -0.8200 A=    0.0000 R=    0.0000 C=    0.0000
 XYZ=   -9.7359   -5.3733   -1.1527 Q=    0.4100 A=    0.0000 R=    0.0000 C=    0.0000
 XYZ=  -10.5536   -5.2281    0.2533 Q=    0.4100 A=    0.0000 R=    0.0000 C=    0.0000
 XYZ=   -6.9147    7.1442    3.0283 Q=   -0.8200 A=    0.0000 R=    0.0000 C=    0.0000
 XYZ=   -7.5172    7.0394    3.8195 Q=    0.4100 A=    0.0000 R=    0.0000 C=    0.0000
 XYZ=   -7.2958    6.6440    2.2507 Q=    0.4100 A=    0.0000 R=    0.0000 C=    0.0000
 XYZ=   -7.4862   -6.4712   -8.1129 Q=   -0.8200 A=    0.0000 R=    0.0000 C=    0.0000
 XYZ=   -6.5012   -6.3166   -8.0355 Q=    0.4100 A=    0.0000 R=    0.0000 C=    0.0000
 XYZ=   -7.9644   -5.9236   -7.4263 Q=    0.4100 A=    0.0000 R=    0.0000 C=    0.0000
 XYZ=    7.3592    4.5554    6.6868 Q=   -0.8200 A=    0.0000 R=    0.0000 C=    0.0000
 XYZ=    7.9335    4.2388    5.9318 Q=    0.4100 A=    0.0000 R=    0.0000 C=    0.0000
 XYZ=    7.9181    4.6600    7.5095 Q=    0.4100 A=    0.0000 R=    0.0000 C=    0.0000
 XYZ=   -5.1862   -8.9628    5.9250 Q=   -0.8200 A=    0.0000 R=    0.0000 C=    0.0000
 XYZ=   -4.9501   -9.3002    5.0136 Q=    0.4100 A=    0.0000 R=    0.0000 C=    0.0000
 XYZ=   -4.8238   -8.0381    6.0421 Q=    0.4100 A=    0.0000 R=    0.0000 C=    0.0000
 XYZ=    3.4093    0.8893  -11.5794 Q=   -0.8200 A=    0.0000 R=    0.0000 C=    0.0000
 XYZ=    2.8125    1.5420  -11.1127 Q=    0.4100 A=    0.0000 R=    0.0000 C=    0.0000
 XYZ=    4.0323    0.4743  -10.9164 Q=    0.4100 A=    0.0000 R=    0.0000 C=    0.0000
 XYZ=    0.6086   -8.6137   -9.7523 Q=   -0.8200 A=    0.0000 R=    0.0000 C=    0.0000
 XYZ=    1.0492   -8.2127  -10.5555 Q=    0.4100 A=    0.0000 R=    0.0000 C=    0.0000
 XYZ=    0.6617   -7.9714   -8.9876 Q=    0.4100 A=    0.0000 R=    0.0000 C=    0.0000
 XYZ=   10.3319    5.1656    0.8941 Q=   -0.8200 A=    0.0000 R=    0.0000 C=    0.0000
 XYZ=    9.5491    5.4941    1.4226 Q=    0.4100 A=    0.0000 R=    0.0000 C=    0.0000
 XYZ=   11.0386    5.8728    0.8705 Q=    0.4100 A=    0.0000 R=    0.0000 C=    0.0000
 XYZ=    1.1792    4.5283  -11.3435 Q=   -0.8200 A=    0.0000 R=    0.0000 C=    0.0000
 XYZ=    0.7650    4.9051  -10.5150 Q=    0.4100 A=    0.0000 R=    0.0000 C=    0.0000
 XYZ=    1.7742    5.2153  -11.7608 Q=    0.4100 A=    0.0000 R=    0.0000 C=    0.0000
 XYZ=   -2.4025    6.4613    9.7274 Q=   -0.8200 A=    0.0000 R=    0.0000 C=    0.0000
 XYZ=   -2.6663    7.4253    9.6933 Q=    0.4100 A=    0.0000 R=    0.0000 C=    0.0000
 XYZ=   -2.0928    6.1683    8.8228 Q=    0.4100 A=    0.0000 R=    0.0000 C=    0.0000
 XYZ=    4.8202    4.0607    9.1571 Q=   -0.8200 A=    0.0000 R=    0.0000 C=    0.0000
 XYZ=    5.3900    4.0100    9.9773 Q=    0.4100 A=    0.0000 R=    0.0000 C=    0.0000
 XYZ=    4.6876    5.0185    8.9020 Q=    0.4100 A=    0.0000 R=    0.0000 C=    0.0000
 XYZ=   -2.8963  -11.6476    3.4121 Q=   -0.8200 A=    0.0000 R=    0.0000 C=    0.0000
 XYZ=   -2.5431  -10.7720    3.0826 Q=    0.4100 A=    0.0000 R=    0.0000 C=    0.0000
 XYZ=   -3.4971  -12.0466    2.7193 Q=    0.4100 A=    0.0000 R=    0.0000 C=    0.0000
 XYZ=   -9.2235   -6.4899   -4.6416 Q=   -0.8200 A=    0.0000 R=    0.0000 C=    0.0000
 XYZ=   -8.6317   -7.1137   -4.1311 Q=    0.4100 A=    0.0000 R=    0.0000 C=    0.0000
 XYZ=  -10.0200   -6.9896   -4.9819 Q=    0.4100 A=    0.0000 R=    0.0000 C=    0.0000
 XYZ=   -2.7373  -11.5410   -4.1353 Q=   -0.8200 A=    0.0000 R=    0.0000 C=    0.0000
 XYZ=   -2.1713  -10.9786   -4.7382 Q=    0.4100 A=    0.0000 R=    0.0000 C=    0.0000
 XYZ=   -3.4313  -12.0156   -4.6768 Q=    0.4100 A=    0.0000 R=    0.0000 C=    0.0000
 XYZ=    0.9701   12.3018   -0.4655 Q=   -0.8200 A=    0.0000 R=    0.0000 C=    0.0000
 XYZ=    1.9380   12.5514   -0.4950 Q=    0.4100 A=    0.0000 R=    0.0000 C=    0.0000
 XYZ=    0.8135   11.5047   -1.0487 Q=    0.4100 A=    0.0000 R=    0.0000 C=    0.0000
 XYZ=   -0.9309  -11.4485    0.4969 Q=   -0.8200 A=    0.0000 R=    0.0000 C=    0.0000
 XYZ=   -0.7818  -12.2269   -0.1129 Q=    0.4100 A=    0.0000 R=    0.0000 C=    0.0000
 XYZ=   -1.0218  -11.7750    1.4377 Q=    0.4100 A=    0.0000 R=    0.0000 C=    0.0000
 XYZ=    0.5960   -0.7645   11.8799 Q=   -0.8200 A=    0.0000 R=    0.0000 C=    0.0000
 XYZ=    0.2921   -1.2184   11.0423 Q=    0.4100 A=    0.0000 R=    0.0000 C=    0.0000
 XYZ=   -0.1481   -0.2046   12.2444 Q=    0.4100 A=    0.0000 R=    0.0000 C=    0.0000
 XYZ=   -3.5921    6.8146   -8.4532 Q=   -0.8200 A=    0.0000 R=    0.0000 C=    0.0000
 XYZ=   -3.7894    7.5096   -7.7617 Q=    0.4100 A=    0.0000 R=    0.0000 C=    0.0000
 XYZ=   -4.4296    6.5957   -8.9539 Q=    0.4100 A=    0.0000 R=    0.0000 C=    0.0000
 XYZ=    8.1714   -1.0593   -8.5934 Q=   -0.8200 A=    0.0000 R=    0.0000 C=    0.0000
 XYZ=    7.5713   -0.3795   -8.1718 Q=    0.4100 A=    0.0000 R=    0.0000 C=    0.0000
 XYZ=    7.8708   -1.9767   -8.3327 Q=    0.4100 A=    0.0000 R=    0.0000 C=    0.0000
 XYZ=    8.8537    3.5377   -5.1800 Q=   -0.8200 A=    0.0000 R=    0.0000 C=    0.0000
 XYZ=    8.8972    4.4667   -4.8123 Q=    0.4100 A=    0.0000 R=    0.0000 C=    0.0000
 XYZ=    9.7030    3.0547   -4.9667 Q=    0.4100 A=    0.0000 R=    0.0000 C=    0.0000
 XYZ=   -7.8939    6.2823    5.0683 Q=   -0.8200 A=    0.0000 R=    0.0000 C=    0.0000
 XYZ=   -7.3598    5.4383    5.0176 Q=    0.4100 A=    0.0000 R=    0.0000 C=    0.0000
 XYZ=   -7.3623    6.9853    5.5408 Q=    0.4100 A=    0.0000 R=    0.0000 C=    0.0000
 XYZ=    0.8467   -5.6883  -11.2868 Q=   -0.8200 A=    0.0000 R=    0.0000 C=    0.0000
 XYZ=   -0.0699   -5.7085  -10.8874 Q=    0.4100 A=    0.0000 R=    0.0000 C=    0.0000
 XYZ=    1.4845   -5.2753  -10.6367 Q=    0.4100 A=    0.0000 R=    0.0000 C=    0.0000
 XYZ=   -0.3613    1.1367  -12.5160 Q=   -0.8200 A=    0.0000 R=    0.0000 C=    0.0000
 XYZ=    0.2651    0.9008  -11.7731 Q=    0.4100 A=    0.0000 R=    0.0000 C=    0.0000
 XYZ=   -1.3018    1.1215  -12.1764 Q=    0.4100 A=    0.0000 R=    0.0000 C=    0.0000
 XYZ=  -10.0806   -2.9654    4.2065 Q=   -0.8200 A=    0.0000 R=    0.0000 C=    0.0000
 XYZ=   -9.5706   -3.7474    3.8482 Q=    0.4100 A=    0.0000 R=    0.0000 C=    0.0000
 XYZ=  -10.5861   -3.2433    5.0234 Q=    0.4100 A=    0.0000 R=    0.0000 C=    0.0000
 XYZ=   -6.6332   -2.4667  -10.4458 Q=   -0.8200 A=    0.0000 R=    0.0000 C=    0.0000
 XYZ=   -6.1187   -3.2006  -10.0024 Q=    0.4100 A=    0.0000 R=    0.0000 C=    0.0000
 XYZ=   -7.3567   -2.8619  -11.0120 Q=    0.4100 A=    0.0000 R=    0.0000 C=    0.0000
 XYZ=    1.3162   12.2383    2.0062 Q=   -0.8200 A=    0.0000 R=    0.0000 C=    0.0000
 XYZ=    0.8645   11.4580    2.4387 Q=    0.4100 A=    0.0000 R=    0.0000 C=    0.0000
 XYZ=    1.1557   12.2114    1.0195 Q=    0.4100 A=    0.0000 R=    0.0000 C=    0.0000
 XYZ=    1.6126    6.1530    9.9481 Q=   -0.8200 A=    0.0000 R=    0.0000 C=    0.0000
 XYZ=    0.8481    6.3038   10.5749 Q=    0.4100 A=    0.0000 R=    0.0000 C=    0.0000
 XYZ=    1.8652    5.1854    9.9572 Q=    0.4100 A=    0.0000 R=    0.0000 C=    0.0000
 XYZ=  -10.3471    2.2471    2.4430 Q=   -0.8200 A=    0.0000 R=    0.0000 C=    0.0000
 XYZ=   -9.4319    2.5440    2.7158 Q=    0.4100 A=    0.0000 R=    0.0000 C=    0.0000
 XYZ=  -10.2730    1.4645    1.8248 Q=    0.4100 A=    0.0000 R=    0.0000 C=    0.0000
 XYZ=    1.6196    2.8094   11.8947 Q=   -0.8200 A=    0.0000 R=    0.0000 C=    0.0000
 XYZ=    1.8526    2.9341   10.9303 Q=    0.4100 A=    0.0000 R=    0.0000 C=    0.0000
 XYZ=    1.7958    1.8615   12.1602 Q=    0.4100 A=    0.0000 R=    0.0000 C=    0.0000
 XYZ=   10.7696   -0.1660   -0.0187 Q=   -0.8200 A=    0.0000 R=    0.0000 C=    0.0000
 XYZ=   11.0390   -1.0809    0.2820 Q=    0.4100 A=    0.0000 R=    0.0000 C=    0.0000
 XYZ=   10.6054    0.4125    0.7803 Q=    0.4100 A=    0.0000 R=    0.0000 C=    0.0000
 XYZ=   10.9868    0.2290   -3.2768 Q=   -0.8200 A=    0.0000 R=    0.0000 C=    0.0000
 XYZ=   10.2040    0.0983   -2.6684 Q=    0.4100 A=    0.0000 R=    0.0000 C=    0.0000
 XYZ=   11.7901    0.4806   -2.7370 Q=    0.4100 A=    0.0000 R=    0.0000 C=    0.0000
 XYZ=   -7.8684    4.4310   -8.1894 Q=   -0.8200 A=    0.0000 R=    0.0000 C=    0.0000
 XYZ=   -8.0159    5.3963   -8.4052 Q=    0.4100 A=    0.0000 R=    0.0000 C=    0.0000
 XYZ=   -6.8890    4.2591   -8.0835 Q=    0.4100 A=    0.0000 R=    0.0000 C=    0.0000
 XYZ=   -8.3236   -8.5599    4.0522 Q=   -0.8200 A=    0.0000 R=    0.0000 C=    0.0000
 XYZ=   -8.0482   -9.1440    4.8157 Q=    0.4100 A=    0.0000 R=    0.0000 C=    0.0000
 XYZ=   -7.5368   -8.0285    3.7383 Q=    0.4100 A=    0.0000 R=    0.0000 C=    0.0000
 XYZ=   11.3561    3.1500    0.9075 Q=   -0.8200 A=    0.0000 R=    0.0000 C=    0.0000
 XYZ=   10.6647    2.4882    1.1972 Q=    0.4100 A=    0.0000 R=    0.0000 C=    0.0000
 XYZ=   10.9817    4.0748    0.9760 Q=    0.4100 A=    0.0000 R=    0.0000 C=    0.0000
 XYZ=   -5.4077    6.1628    8.3966 Q=   -0.8200 A=    0.0000 R=    0.0000 C=    0.0000
 XYZ=   -6.0265    6.9459    8.3348 Q=    0.4100 A=    0.0000 R=    0.0000 C=    0.0000
 XYZ=   -4.5827    6.3470    7.8622 Q=    0.4100 A=    0.0000 R=    0.0000 C=    0.0000
 XYZ=   11.1157    3.9164   -2.3737 Q=   -0.8200 A=    0.0000 R=    0.0000 C=    0.0000
 XYZ=   10.3148    4.1235   -1.8118 Q=    0.4100 A=    0.0000 R=    0.0000 C=    0.0000
 XYZ=   11.8920    3.7011   -1.7811 Q=    0.4100 A=    0.0000 R=    0.0000 C=    0.0000
 XYZ=   -0.8268    6.5682  -10.9949 Q=   -0.8200 A=    0.0000 R=    0.0000 C=    0.0000
 XYZ=   -1.3364    6.0208  -11.6587 Q=    0.4100 A=    0.0000 R=    0.0000 C=    0.0000
 XYZ=   -0.3550    5.9616  -10.3550 Q=    0.4100 A=    0.0000 R=    0.0000 C=    0.0000
 XYZ=   -3.3757  -12.3636   -0.7719 Q=   -0.8200 A=    0.0000 R=    0.0000 C=    0.0000
 XYZ=   -3.5671  -11.4927   -1.2245 Q=    0.4100 A=    0.0000 R=    0.0000 C=    0.0000
 XYZ=   -2.4287  -12.6309   -0.9503 Q=    0.4100 A=    0.0000 R=    0.0000 C=    0.0000
 XYZ=   -5.0509   -5.4540    8.4822 Q=   -0.8200 A=    0.0000 R=    0.0000 C=    0.0000
 XYZ=   -5.3547   -6.1656    9.1158 Q=    0.4100 A=    0.0000 R=    0.0000 C=    0.0000
 XYZ=   -5.8465   -4.9676    8.1210 Q=    0.4100 A=    0.0000 R=    0.0000 C=    0.0000
 XYZ=    4.5287    0.3824   11.4154 Q=   -0.8200 A=    0.0000 R=    0.0000 C=    0.0000
 XYZ=    4.6950    0.2002   10.4463 Q=    0.4100 A=    0.0000 R=    0.0000 C=    0.0000
 XYZ=    5.2526    0.9726   11.7726 Q=    0.4100 A=    0.0000 R=    0.0000 C=    0.0000
 XYZ=    8.4176    8.3096    4.5849 Q=   -0.8200 A=    0.0000 R=    0.0000 C=    0.0000
 XYZ=    9.0174    7.5382    4.7976 Q=    0.4100 A=    0.0000 R=    0.0000 C=    0.0000
 XYZ=    7.6481    7.9908    4.0315 Q=    0.4100 A=    0.0000 R=    0.0000 C=    0.0000
 XYZ=   -9.1760    5.6673   -0.3463 Q=   -0.8200 A=    0.0000 R=    0.0000 C=    0.0000
 XYZ=   -8.6501    5.7998   -1.1865 Q=    0.4100 A=    0.0000 R=    0.0000 C=    0.0000
 XYZ=   -8.5903    5.8441    0.4448 Q=    0.4100 A=    0.0000 R=    0.0000 C=    0.0000
 XYZ=    4.9265    6.4392    8.9273 Q=   -0.8200 A=    0.0000 R=    0.0000 C=    0.0000
 XYZ=    5.5962    6.9884    9.4271 Q=    0.4100 A=    0.0000 R=    0.0000 C=    0.0000
 XYZ=    5.1068    6.5056    7.9459 Q=    0.4100 A=    0.0000 R=    0.0000 C=    0.0000
 XYZ=    7.6226   -3.2106   -7.6758 Q=   -0.8200 A=    0.0000 R=    0.0000 C=    0.0000
 XYZ=    8.0840   -3.8551   -7.0660 Q=    0.4100 A=    0.0000 R=    0.0000 C=    0.0000
 XYZ=    7.0928   -3.7167   -8.3564 Q=    0.4100 A=    0.0000 R=    0.0000 C=    0.0000
 XYZ=  -11.6194    0.9979   -1.8467 Q=   -0.8200 A=    0.0000 R=    0.0000 C=    0.0000
 XYZ=  -12.1039    1.8724   -1.8224 Q=    0.4100 A=    0.0000 R=    0.0000 C=    0.0000
 XYZ=  -10.6468    1.1508   -1.6717 Q=    0.4100 A=    0.0000 R=    0.0000 C=    0.0000
 XYZ=   -6.8238  -10.0944   -2.7361 Q=   -0.8200 A=    0.0000 R=    0.0000 C=    0.0000
 XYZ=   -6.8072  -11.0109   -3.1358 Q=    0.4100 A=    0.0000 R=    0.0000 C=    0.0000
 XYZ=   -7.5983  -10.0187   -2.1079 Q=    0.4100 A=    0.0000 R=    0.0000 C=    0.0000
 XYZ=   -0.3353   -6.5756   10.2053 Q=   -0.8200 A=    0.0000 R=    0.0000 C=    0.0000
 XYZ=   -0.7629   -6.2583    9.3588 Q=    0.4100 A=    0.0000 R=    0.0000 C=    0.0000
 XYZ=    0.5151   -6.0720   10.3582 Q=    0.4100 A=    0.0000 R=    0.0000 C=    0.0000
 XYZ=    0.7490   10.6657    7.0627 Q=   -0.8200 A=    0.0000 R=    0.0000 C=    0.0000
 XYZ=    0.7138   10.0309    6.2907 Q=    0.4100 A=    0.0000 R=    0.0000 C=    0.0000
 XYZ=    1.6706   11.0464    7.1393 Q=    0.4100 A=    0.0000 R=    0.0000 C=    0.0000
 XYZ=    8.9161   -6.7718    0.2647 Q=   -0.8200 A=    0.0000 R=    0.0000 C=    0.0000
 XYZ=    8.5501   -6.3396    1.0888 Q=    0.4100 A=    0.0000 R=    0.0000 C=    0.0000
 XYZ=    9.5747   -7.4785    0.5233 Q=    0.4100 A=    0.0000 R=    0.0000 C=    0.0000
 XYZ=   -0.5406    3.7853   11.1506 Q=   -0.8200 A=    0.0000 R=    0.0000 C=    0.0000
 XYZ=    0.2985    3.4422   11.5728 Q=    0.4100 A=    0.0000 R=    0.0000 C=    0.0000
 XYZ=   -0.4933    4.7815   11.0770 Q=    0.4100 A=    0.0000 R=    0.0000 C=    0.0000
 XYZ=    9.8104   -0.4889   -5.4099 Q=   -0.8200 A=    0.0000 R=    0.0000 C=    0.0000
 XYZ=   10.3242   -0.0971   -4.6466 Q=    0.4100 A=    0.0000 R=    0.0000 C=    0.0000
 XYZ=    9.7157   -1.4754   -5.2764 Q=    0.4100 A=    0.0000 R=    0.0000 C=    0.0000
 XYZ=   -4.7241    0.6637  -11.1574 Q=   -0.8200 A=    0.0000 R=    0.0000 C=    0.0000
 XYZ=   -5.3311    1.4342  -10.9628 Q=    0.4100 A=    0.0000 R=    0.0000 C=    0.0000
 XYZ=   -5.2275   -0.0380  -11.6618 Q=    0.4100 A=    0.0000 R=    0.0000 C=    0.0000
 XYZ=   -6.3878    9.7458    2.9134 Q=   -0.8200 A=    0.0000 R=    0.0000 C=    0.0000
 XYZ=   -6.5510    8.7684    2.7791 Q=    0.4100 A=    0.0000 R=    0.0000 C=    0.0000
 XYZ=   -6.4136    9.9568    3.8906 Q=    0.4100 A=    0.0000 R=    0.0000 C=    0.0000
 XYZ=   -2.4938   -3.1786   10.8063 Q=   -0.8200 A=    0.0000 R=    0.0000 C=    0.0000
 XYZ=   -2.2628   -3.9783   11.3605 Q=    0.4100 A=    0.0000 R=    0.0000 C=    0.0000
 XYZ=   -2.8861   -2.4693   11.3920 Q=    0.4100 A=    0.0000 R=    0.0000 C=    0.0000
 XYZ=   -9.5911    4.1041   -3.9264 Q=   -0.8200 A=    0.0000 R=    0.0000 C=    0.0000
 XYZ=   -9.7731    3.9618   -2.9534 Q=    0.4100 A=    0.0000 R=    0.0000 C=    0.0000
 XYZ=  -10.2031    3.5274   -4.4677 Q=    0.4100 A=    0.0000 R=    0.0000 C=    0.0000
 XYZ=   -9.8874    3.7900   -1.6337 Q=   -0.8200 A=    0.0000 R=    0.0000 C=    0.0000
 XYZ=  -10.8612    3.5643   -1.6642 Q=    0.4100 A=    0.0000 R=    0.0000 C=    0.0000
 XYZ=   -9.7278    4.4828   -0.9304 Q=    0.4100 A=    0.0000 R=    0.0000 C=    0.0000
 XYZ=   -1.8598   11.4000   -4.7312 Q=   -0.8200 A=    0.0000 R=    0.0000 C=    0.0000
 XYZ=   -2.1096   12.3680   -4.7065 Q=    0.4100 A=    0.0000 R=    0.0000 C=    0.0000
 XYZ=   -2.5298   10.8696   -4.2118 Q=    0.4100 A=    0.0000 R=    0.0000 C=    0.0000
 XYZ=   -6.4624    2.7151    9.4634 Q=   -0.8200 A=    0.0000 R=    0.0000 C=    0.0000
 XYZ=   -7.0942    2.2653    8.8321 Q=    0.4100 A=    0.0000 R=    0.0000 C=    0.0000
 XYZ=   -6.0694    2.0352   10.0825 Q=    0.4100 A=    0.0000 R=    0.0000 C=    0.0000
 XYZ=    8.0812    7.0494   -5.6595 Q=   -0.8200 A=    0.0000 R=    0.0000 C=    0.0000
 XYZ=    8.7014    6.7426   -4.9374 Q=    0.4100 A=    0.0000 R=    0.0000 C=    0.0000
 XYZ=    8.3098    6.5844   -6.5148 Q=    0.4100 A=    0.0000 R=    0.0000 C=    0.0000
 XYZ=   11.3184   -2.4339    1.2048 Q=   -0.8200 A=    0.0000 R=    0.0000 C=    0.0000
 XYZ=   10.3897   -2.7996    1.2677 Q=    0.4100 A=    0.0000 R=    0.0000 C=    0.0000
 XYZ=   11.9241   -3.1278    0.8153 Q=    0.4100 A=    0.0000 R=    0.0000 C=    0.0000
 XYZ=    1.5368   -5.2437   10.3266 Q=   -0.8200 A=    0.0000 R=    0.0000 C=    0.0000
 XYZ=    2.4983   -5.5069   10.4061 Q=    0.4100 A=    0.0000 R=    0.0000 C=    0.0000
 XYZ=    1.2712   -4.7061   11.1269 Q=    0.4100 A=    0.0000 R=    0.0000 C=    0.0000
 XYZ=    9.6820    6.4394    5.0456 Q=   -0.8200 A=    0.0000 R=    0.0000 C=    0.0000
 XYZ=    9.4729    5.4696    4.9202 Q=    0.4100 A=    0.0000 R=    0.0000 C=    0.0000
 XYZ=    9.6110    6.6730    6.0154 Q=    0.4100 A=    0.0000 R=    0.0000 C=    0.0000
[...]
    38  H    0.000000   0.000000   0.000202  -0.000228  -0.000050   0.000011
    39  O    0.000000   0.000000   0.000000   0.000000   0.000000   0.000001
    40  H    0.000000   0.000000   0.000000   0.000000   0.000000   0.000000
    41  H    0.000000   0.000000   0.000000   0.000000   0.000000   0.000000
    42  O    0.000000   0.000000  -0.000158  -0.000243  -0.000053  -0.000001
    43  H    0.000000   0.000000  -0.000041   0.000004   0.000007   0.000000
    44  H    0.000000   0.000000  -0.000022   0.000000   0.000000   0.000000
    45  O    0.000000   0.000000   0.000001   0.000000   0.000000   0.000000
    46  H    0.000000   0.000000   0.000000   0.000000   0.000000   0.000000
    47  H    0.000000   0.000000   0.000000   0.000000   0.000000   0.000000
    48  O    0.000000   0.000000  -0.102954   0.002120  -0.001225   0.000001
    49  H    0.000000   0.000000  -0.005258   0.003592  -0.000553   0.000000
    50  H    0.000000   0.000000   0.001146   0.000066   0.000004   0.000000
              31         32         33         34         35         36
     1  C    0.000001   0.000037  -0.000572   0.000003  -0.000820  -0.000227
     2  H    0.000000   0.000000   0.000016   0.000000   0.000000   0.000000
     3  H    0.000000   0.000000   0.000032   0.000000  -0.000001   0.000000
     4  C   -0.000005   0.000048   0.001757  -0.000019   0.000505  -0.002436
     5  H    0.000000   0.000000   0.000021   0.000000  -0.000001   0.000001
     6  C   -0.000019  -0.000783  -0.000364   0.000003   0.000149   0.002691
     7  H    0.000000   0.000000   0.000000   0.000000   0.000000   0.000010
     8  O    0.000050   0.000923   0.000004   0.000000   0.000000   0.004506
     9  O    0.000499   0.005269   0.000000   0.000000   0.000000   0.000543
    10  H   -0.000005  -0.000395   0.000001   0.000000   0.000000  -0.000009
    11  H   -0.001753  -0.002355   0.000000   0.000000   0.000000  -0.000032
    12  O   -0.000005  -0.000400   0.000000   0.000000   0.000000  -0.064908
    13  H    0.000003   0.000000   0.000000   0.000000   0.000000   0.003508
    14  H    0.000001  -0.000004   0.000000   0.000000   0.000000   0.036854
    15  O    0.000003   0.000007  -0.001177  -0.000007   0.000037   0.000000
    16  H    0.000000   0.000000   0.000016   0.000000   0.000000   0.000000
    17  H    0.000000  -0.000003   0.000067   0.000000   0.000000   0.000000
    18  O    0.000000   0.000000  -0.086703   0.001580   0.003187   0.000000
    19  H    0.000000   0.000000   0.001146  -0.000006   0.000002   0.000000
    20  H    0.000000   0.000000   0.050670  -0.001232  -0.001156   0.000000
    21  O    0.000317   0.025395   0.000000   0.000000   0.000000  -0.004324
    22  H   -0.000034   0.000437   0.000000   0.000000   0.000000   0.000081
    23  H   -0.000036   0.000074   0.000000   0.000000   0.000000   0.001647
    24  O   -0.000041  -0.000029   0.000000   0.000000   0.000000  -0.000204
    25  H    0.000000   0.000003   0.000000   0.000000   0.000000  -0.000024
    26  H   -0.000013   0.000027   0.000000   0.000000   0.000000  -0.000018
    27  O   -0.000001  -0.000010   0.000000   0.000000   0.000000  -0.022960
    28  H    0.000000   0.000013   0.000000   0.000000   0.000000   0.005274
    29  H    0.000000   0.000001   0.000000   0.000000   0.000000   0.001678
    30  O    0.207415   0.142262   0.000000   0.000000   0.000000  -0.000401
    31  H    0.150456  -0.005570   0.000000   0.000000   0.000000   0.000004
    32  H   -0.005570   0.224651   0.000000   0.000000   0.000000   0.000083
    33  O    0.000000   0.000000   8.684825   0.229754   0.229375   0.000000
    34  H    0.000000   0.000000   0.229754   0.181560  -0.006746   0.000000
    35  H    0.000000   0.000000   0.229375  -0.006746   0.214494   0.000000
    36  O    0.000004   0.000083   0.000000   0.000000   0.000000   9.108166
    37  H    0.000000   0.000000   0.000000   0.000000   0.000000   0.129169
    38  H    0.000000  -0.000006   0.000000   0.000000   0.000000   0.198127
    39  O    0.000000   0.000000  -0.002094   0.000060   0.000040   0.000000
    40  H    0.000000   0.000000  -0.000182  -0.000010  -0.000014   0.000000
    41  H    0.000000   0.000000  -0.000097   0.000003  -0.000002   0.000000
    42  O    0.000000   0.000000   0.000000   0.000000   0.000000  -0.087110
    43  H    0.000000   0.000000   0.000000   0.000000   0.000000   0.001193
    44  H    0.000000   0.000000   0.000000   0.000000   0.000000   0.000702
    45  O    0.000000   0.000000   0.000026   0.000000   0.000000   0.000000
    46  H    0.000000   0.000000   0.000000   0.000000   0.000000   0.000000
    47  H    0.000000   0.000000  -0.000004   0.000000   0.000000   0.000000
    48  O    0.000000   0.000000   0.000000   0.000000   0.000000  -0.001390
    49  H    0.000000   0.000000   0.000000   0.000000   0.000000   0.000891
    50  H    0.000000   0.000000   0.000000   0.000000   0.000000   0.000019
              37         38         39         40         41         42
     1  C   -0.000030   0.000001   0.000120  -0.000075  -0.000001  -0.000060
     2  H    0.000000   0.000000   0.000000   0.000000   0.000000   0.000000
     3  H    0.000000   0.000000   0.000000   0.000000   0.000000   0.000000
     4  C   -0.000220   0.000028  -0.000159   0.000123   0.000003   0.000876
     5  H    0.000000   0.000000   0.000000   0.000000   0.000000   0.000000
     6  C    0.000032   0.000182   0.000131  -0.000052  -0.000002  -0.000309
     7  H   -0.000002   0.000000   0.000000   0.000000   0.000000  -0.000010
     8  O   -0.000288  -0.000023   0.000000   0.000000   0.000000  -0.000116
     9  O   -0.000001   0.000004   0.000001   0.000001   0.000000   0.000005
    10  H    0.000000   0.000000   0.000000   0.000000   0.000000   0.000000
    11  H    0.000000   0.000000   0.000000   0.000000   0.000000   0.000000
    12  O   -0.001502  -0.002256   0.000000   0.000000   0.000000  -0.001596
    13  H    0.000047   0.000073   0.000000   0.000000   0.000000   0.000071
    14  H    0.000763  -0.003150   0.000000   0.000000   0.000000   0.001551
    15  O    0.000000   0.000000  -0.026212   0.010310   0.000833   0.000000
    16  H    0.000000   0.000000   0.001512   0.003870  -0.000111   0.000000
    17  H    0.000000   0.000000   0.000881  -0.000228  -0.000008   0.000000
    18  O    0.000000   0.000000  -0.074669   0.042305   0.002094   0.000000
    19  H    0.000000   0.000000  -0.003246  -0.004856  -0.000596   0.000000
    20  H    0.000000   0.000000  -0.002366   0.002160   0.000065   0.000000
    21  O    0.000037   0.000195   0.000000   0.000000   0.000000   0.000045
    22  H    0.000000   0.000000   0.000000   0.000000   0.000000   0.000000
    23  H    0.000022  -0.000030   0.000000   0.000000   0.000000   0.000009
    24  O   -0.000001  -0.000002   0.000000   0.000000   0.000000  -0.000004
    25  H    0.000000   0.000000   0.000000   0.000000   0.000000   0.000000
    26  H    0.000000   0.000000   0.000000   0.000000   0.000000   0.000000
    27  O    0.001653   0.000202   0.000000   0.000000   0.000000  -0.000158
    28  H   -0.000315  -0.000228   0.000000   0.000000   0.000000  -0.000243
    29  H   -0.000131  -0.000050   0.000000   0.000000   0.000000  -0.000053
    30  O    0.000000   0.000011   0.000001   0.000000   0.000000  -0.000001
    31  H    0.000000   0.000000   0.000000   0.000000   0.000000   0.000000
    32  H    0.000000  -0.000006   0.000000   0.000000   0.000000   0.000000
    33  O    0.000000   0.000000  -0.002094  -0.000182  -0.000097   0.000000
    34  H    0.000000   0.000000   0.000060  -0.000010   0.000003   0.000000
    35  H    0.000000   0.000000   0.000040  -0.000014  -0.000002   0.000000
    36  O    0.129169   0.198127   0.000000   0.000000   0.000000  -0.087110
    37  H    0.193408  -0.010920   0.000000   0.000000   0.000000   0.039915
    38  H   -0.010920   0.167270   0.000000   0.000000   0.000000   0.001124
    39  O    0.000000   0.000000   8.913185   0.157225   0.206571   0.000000
    40  H    0.000000   0.000000   0.157225   0.255359  -0.008233   0.000000
    41  H    0.000000   0.000000   0.206571  -0.008233   0.210487   0.000000
    42  O    0.039915   0.001124   0.000000   0.000000   0.000000   8.950434
    43  H   -0.000109  -0.000013   0.000000   0.000000   0.000000   0.184871
    44  H   -0.000465   0.000002   0.000000   0.000000   0.000000   0.192846
    45  O    0.000000   0.000000  -0.001693  -0.000616  -0.000034   0.000000
    46  H    0.000000   0.000000  -0.000024   0.000008   0.000001   0.000000
    47  H    0.000000   0.000000   0.000035   0.000162   0.000008   0.000000
    48  O    0.000092   0.000076   0.000000   0.000000   0.000000   0.002929
    49  H   -0.000079  -0.000047   0.000000   0.000000   0.000000  -0.000386
    50  H    0.000000   0.000000   0.000000   0.000000   0.000000   0.000033
              43         44         45         46         47         48
     1  C    0.000000   0.000003  -0.000730  -0.000003  -0.000144  -0.000606
     2  H    0.000000   0.000000   0.000003   0.000000   0.000000  -0.000002
     3  H    0.000000   0.000000   0.000000   0.000000   0.000000   0.000000
     4  C    0.000006   0.000000   0.000583   0.000011   0.000120   0.000375
     5  H    0.000000   0.000000   0.000000   0.000000   0.000000   0.000000
     6  C    0.000004   0.000011  -0.000162  -0.000002  -0.000005   0.000183
     7  H    0.000000   0.000000   0.000000   0.000000   0.000000   0.000000
     8  O   -0.000010  -0.000009   0.000014   0.000000   0.000001   0.000322
     9  O    0.000000   0.000000   0.000000   0.000000   0.000000   0.000000
    10  H    0.000000   0.000000   0.000000   0.000000   0.000000   0.000000
    11  H    0.000000   0.000000   0.000000   0.000000   0.000000   0.000000
    12  O    0.000133  -0.000002   0.000004   0.000000   0.000000  -0.001601
    13  H   -0.000001   0.000001   0.000000   0.000000   0.000000   0.000019
    14  H   -0.000067  -0.000012   0.000000   0.000000   0.000000  -0.000157
    15  O    0.000000   0.000000  -0.105311   0.003547   0.003591   0.000000
    16  H    0.000000   0.000000   0.001418  -0.000341   0.001381   0.000000
    17  H    0.000000   0.000000   0.005678  -0.000001   0.002118   0.000000
    18  O    0.000000   0.000000   0.002649   0.000616  -0.000120   0.000000
    19  H    0.000000   0.000000  -0.000153  -0.000060   0.000001   0.000000
    20  H    0.000000   0.000000  -0.000075   0.000003  -0.000015   0.000000
    21  O   -0.000001   0.000000  -0.000005   0.000000   0.000005   0.000046
    22  H    0.000000   0.000000   0.000001   0.000000  -0.000001  -0.000001
    23  H    0.000000   0.000000   0.000000   0.000000   0.000000  -0.000020
    24  O    0.000000   0.000000   0.000000   0.000000   0.000000   0.000000
    25  H    0.000000   0.000000   0.000000   0.000000   0.000000   0.000000
    26  H    0.000000   0.000000   0.000000   0.000000   0.000000   0.000000
    27  O   -0.000041  -0.000022   0.000001   0.000000   0.000000  -0.102954
    28  H    0.000004   0.000000   0.000000   0.000000   0.000000   0.002120
    29  H    0.000007   0.000000   0.000000   0.000000   0.000000  -0.001225
    30  O    0.000000   0.000000   0.000000   0.000000   0.000000   0.000001
    31  H    0.000000   0.000000   0.000000   0.000000   0.000000   0.000000
    32  H    0.000000   0.000000   0.000000   0.000000   0.000000   0.000000
    33  O    0.000000   0.000000   0.000026   0.000000  -0.000004   0.000000
    34  H    0.000000   0.000000   0.000000   0.000000   0.000000   0.000000
    35  H    0.000000   0.000000   0.000000   0.000000   0.000000   0.000000
    36  O    0.001193   0.000702   0.000000   0.000000   0.000000  -0.001390
    37  H   -0.000109  -0.000465   0.000000   0.000000   0.000000   0.000092
    38  H   -0.000013   0.000002   0.000000   0.000000   0.000000   0.000076
    39  O    0.000000   0.000000  -0.001693  -0.000024   0.000035   0.000000
    40  H    0.000000   0.000000  -0.000616   0.000008   0.000162   0.000000
    41  H    0.000000   0.000000  -0.000034   0.000001   0.000008   0.000000
    42  O    0.184871   0.192846   0.000000   0.000000   0.000000   0.002929
    43  H    0.138689  -0.002994   0.000000   0.000000   0.000000  -0.001090
    44  H   -0.002994   0.153160   0.000000   0.000000   0.000000  -0.000056
    45  O    0.000000   0.000000   8.929062   0.226066   0.167655   0.000000
    46  H    0.000000   0.000000   0.226066   0.220005  -0.006863   0.000000
    47  H    0.000000   0.000000   0.167655  -0.006863   0.195792   0.000000
    48  O   -0.001090  -0.000056   0.000000   0.000000   0.000000   8.908242
    49  H    0.000092   0.000002   0.000000   0.000000   0.000000   0.164178
    50  H   -0.000002   0.000000   0.000000   0.000000   0.000000   0.231808
              49         50
     1  C    0.000018  -0.000008
     2  H   -0.000001   0.000000
     3  H    0.000000   0.000000
     4  C   -0.000111   0.000016
     5  H    0.000000   0.000000
     6  C    0.000096  -0.000018
     7  H    0.000000   0.000000
     8  O    0.000071  -0.000001
     9  O    0.000000   0.000000
    10  H    0.000000   0.000000
    11  H    0.000000   0.000000
    12  O   -0.000725   0.000094
    13  H    0.000009   0.000000
    14  H   -0.000256   0.000000
    15  O    0.000000   0.000000
    16  H    0.000000   0.000000
    17  H    0.000000   0.000000
    18  O    0.000000   0.000000
    19  H    0.000000   0.000000
    20  H    0.000000   0.000000
    21  O    0.000033  -0.000001
    22  H    0.000000   0.000000
    23  H    0.000016   0.000000
    24  O    0.000000   0.000000
    25  H    0.000000   0.000000
    26  H    0.000000   0.000000
    27  O   -0.005258   0.001146
    28  H    0.003592   0.000066
    29  H   -0.000553   0.000004
    30  O    0.000000   0.000000
    31  H    0.000000   0.000000
    32  H    0.000000   0.000000
    33  O    0.000000   0.000000
    34  H    0.000000   0.000000
    35  H    0.000000   0.000000
    36  O    0.000891   0.000019
    37  H   -0.000079   0.000000
    38  H   -0.000047   0.000000
    39  O    0.000000   0.000000
    40  H    0.000000   0.000000
    41  H    0.000000   0.000000
    42  O   -0.000386   0.000033
    43  H    0.000092  -0.000002
    44  H    0.000002   0.000000
    45  O    0.000000   0.000000
    46  H    0.000000   0.000000
    47  H    0.000000   0.000000
    48  O    0.164178   0.231808
    49  H    0.214365  -0.007781
    50  H   -0.007781   0.214415
 Mulliken charges:
               1
     1  C   -0.382820
     2  H    0.264971
     3  H    0.241347
     4  C   -0.155739
     5  H    0.240353
     6  C    0.110689
     7  H    0.243102
     8  O   -0.482888
     9  O   -1.086630
    10  H    0.470222
    11  H    0.597281
    12  O   -1.400411
    13  H    0.684905
    14  H    0.645146
    15  O   -1.105687
    16  H    0.599634
    17  H    0.506280
    18  O   -1.263594
    19  H    0.659578
    20  H    0.625420
    21  O   -1.271942
    22  H    0.615113
    23  H    0.672755
    24  O   -1.266035
    25  H    0.621449
    26  H    0.608806
    27  O   -1.332015
    28  H    0.661451
    29  H    0.655837
    30  O   -1.246032
    31  H    0.648732
    32  H    0.610324
    33  O   -1.106517
    34  H    0.595059
    35  H    0.560951
    36  O   -1.311101
    37  H    0.648924
    38  H    0.649429
    39  O   -1.169298
    40  H    0.542742
    41  H    0.589020
    42  O   -1.284666
    43  H    0.679329
    44  H    0.656831
    45  O   -1.224377
    46  H    0.557038
    47  H    0.636284
    48  O   -1.201289
    49  H    0.631832
    50  H    0.560210
 Sum of Mulliken charges =   0.00000
 Mulliken charges with hydrogens summed into heavy atoms:
               1
     1  C    0.123497
     4  C    0.084613
     6  C    0.353790
     8  O   -0.482888
     9  O   -0.019128
    12  O   -0.070361
    15  O    0.000227
    18  O    0.021404
    21  O    0.015926
    24  O   -0.035780
    27  O   -0.014727
    30  O    0.013025
    33  O    0.049492
    36  O   -0.012747
    39  O   -0.037536
    42  O    0.051495
    45  O   -0.031056
    48  O   -0.009247
 Electronic spatial extent (au):  <R**2>=          12496.4231
 Charge=              0.0000 electrons
 Dipole moment (field-independent basis, Debye):
    X=             -6.9643    Y=             -4.1521    Z=             15.7086  Tot=             17.6777
 Quadrupole moment (field-independent basis, Debye-Ang):
   XX=            -36.3089   YY=           -184.7196   ZZ=            -95.3104
   XY=            -15.4377   XZ=            -62.5055   YZ=            -11.5413
 Traceless Quadrupole moment (field-independent basis, Debye-Ang):
   XX=             69.1374   YY=            -79.2734   ZZ=             10.1359
   XY=            -15.4377   XZ=            -62.5055   YZ=            -11.5413
 Octapole moment (field-independent basis, Debye-Ang**2):
  XXX=           -359.4782  YYY=           -269.2655  ZZZ=            132.0085  XYY=            -75.7468
  XXY=             28.1346  XXZ=            446.0594  XZZ=             16.7980  YZZ=             60.7939
  YYZ=             -0.4697  XYZ=             80.8571
 Hexadecapole moment (field-independent basis, Debye-Ang**3):
 XXXX=          -3677.1020 YYYY=          -4515.4161 ZZZZ=          -1914.3982 XXXY=            222.2749
 XXXZ=          -1712.6688 YYYX=           -447.9280 YYYZ=           -402.3373 ZZZX=           -539.6657
 ZZZY=            -92.7854 XXYY=          -2212.4641 XXZZ=          -1267.6119 YYZZ=          -1053.3421
 XXYZ=             30.2469 YYXZ=           -390.1872 ZZXY=           -339.2063
 N-N= 1.097948829280D+03 E-N=-6.160953055682D+03  KE= 1.249482233985D+03
 Leave Link  601 at Fri Sep 14 18:03:11 2018, MaxMem=    33554432 cpu:         2.1
 (Enter /usr/local/pacerepov1/gaussian/G09D01LINDA/g09/l9999.exe)

 Test job not archived.
 1\1\GINC-RICH133-C38-30-R\SP\RLC-wPBE TD-FC\6-31+G(d)\C3H32O15\ROOT\14
 -Sep-2018\0\\#p td=(nstates=15)/6-31+g(d) lc-wpbe charge\\Acroleina in
  Water\\0,1\C,0,0.485154,0.480443,-1.430142\H,0,1.461403,0.187773,-1.0
 55732\H,0,0.429244,0.878853,-2.437062\C,0,-0.605127,0.346563,-0.658432
 \H,0,-1.591686,0.632893,-1.012412\C,0,-0.508516,-0.199107,0.712798\H,0
 ,-1.458487,-0.272107,1.272438\O,0,0.544883,-0.561317,1.236519\O,0,-0.8
 55564,0.709371,3.638561\H,0,-0.292314,0.679021,2.812831\H,0,-0.266924,
 0.660241,4.445501\O,0,1.482597,-2.088979,2.276281\H,0,0.976606,-1.2850
 19,1.963761\H,0,0.840066,-2.775989,2.615611\O,0,3.537936,3.087931,1.03
 2841\H,0,2.994457,3.757061,0.525921\H,0,3.031507,2.792202,1.842851\O,0
 ,2.457266,4.853042,-0.290639\H,0,3.088216,5.439491,-0.798539\H,0,1.547
 237,4.907871,-0.701629\O,0,2.657907,-0.894109,4.018352\H,0,3.579336,-0
 .694059,3.685161\H,0,2.183936,-1.476709,3.358071\O,0,-2.951284,-0.0112
 89,4.432941\H,0,-2.701224,-0.925659,4.751431\H,0,-2.178264,0.394841,3.
 945591\O,0,3.112607,-3.734629,1.523101\H,0,2.360816,-3.086329,1.643941
 \H,0,3.193027,-4.307478,2.338811\O,0,0.967057,0.234931,5.449101\H,0,1.
 442937,0.978271,5.919221\H,0,1.578696,-0.178299,4.774451\O,0,0.407746,
 5.197591,-1.565899\H,0,0.577956,5.912071,-2.244539\H,0,-0.572484,5.146
 311,-1.374629\O,0,0.031406,-3.943319,3.311981\H,0,-0.280274,-4.591289,
 2.616982\H,0,0.749766,-4.366679,3.864002\O,0,3.030006,6.028991,1.73110
 1\H,0,2.856516,5.394211,0.978101\H,0,2.944276,6.969061,1.400981\O,0,-0
 .747374,-5.716128,1.750351\H,0,-0.218433,-6.017609,0.957001\H,0,-1.720
 213,-5.875528,1.582381\O,0,5.783477,3.000952,0.424761\H,0,5.774397,3.1
 33921,-0.566329\H,0,4.844337,2.990571,0.768231\O,0,2.638526,-5.222128,
 -0.196819\H,0,2.772746,-4.552689,0.533821\H,0,3.504776,-5.374109,-0.67
 2819\\Version=EM64L-G09RevD.01\State=1-A\HF=-1759.0264817\RMSD=5.771e-
 09\PG=C01 [X(C3H32O15)]\\@


 QUANTUM MECHANICS IS BOHRING -- M.S. GORDON
 Job cpu time:       0 days  2 hours 18 minutes 28.5 seconds.
 File lengths (MBytes):  RWF=    792 Int=      0 D2E=      0 Chk=     96 Scr=      2
 Normal termination of Gaussian 09 at Fri Sep 14 18:03:13 2018.
