 Entering Gaussian System, Link 0=g09
 Input=Acroleina_water_15_18c.gjf
 Output=Acroleina_water_15_18c.log
 Initial command:
 /usr/local/pacerepov1/gaussian/G09D01LINDA/g09/l1.exe /nv/hp18/holiveira7/scratch/22411823/Gau-30004.inp -scrdir=/nv/hp18/holiveira7/scratch/22411823/
 Entering Link 1 = /usr/local/pacerepov1/gaussian/G09D01LINDA/g09/l1.exe PID=     30013.
  
 Copyright (c) 1988,1990,1992,1993,1995,1998,2003,2009,2013,
            Gaussian, Inc.  All Rights Reserved.
  
 This is part of the Gaussian(R) 09 program.  It is based on
 the Gaussian(R) 03 system (copyright 2003, Gaussian, Inc.),
 the Gaussian(R) 98 system (copyright 1998, Gaussian, Inc.),
 the Gaussian(R) 94 system (copyright 1995, Gaussian, Inc.),
 the Gaussian 92(TM) system (copyright 1992, Gaussian, Inc.),
 the Gaussian 90(TM) system (copyright 1990, Gaussian, Inc.),
 the Gaussian 88(TM) system (copyright 1988, Gaussian, Inc.),
 the Gaussian 86(TM) system (copyright 1986, Carnegie Mellon
 University), and the Gaussian 82(TM) system (copyright 1983,
 Carnegie Mellon University). Gaussian is a federally registered
 trademark of Gaussian, Inc.
  
 This software contains proprietary and confidential information,
 including trade secrets, belonging to Gaussian, Inc.
  
 This software is provided under written license and may be
 used, copied, transmitted, or stored only in accord with that
 written license.
  
 The following legend is applicable only to US Government
 contracts under FAR:
  
                    RESTRICTED RIGHTS LEGEND
  
 Use, reproduction and disclosure by the US Government is
 subject to restrictions as set forth in subparagraphs (a)
 and (c) of the Commercial Computer Software - Restricted
 Rights clause in FAR 52.227-19.
  
 Gaussian, Inc.
 340 Quinnipiac St., Bldg. 40, Wallingford CT 06492
  
  
 ---------------------------------------------------------------
 Warning -- This program may not be used in any manner that
 competes with the business of Gaussian, Inc. or will provide
 assistance to any competitor of Gaussian, Inc.  The licensee
 of this program is prohibited from giving any competitor of
 Gaussian, Inc. access to this program.  By using this program,
 the user acknowledges that Gaussian, Inc. is engaged in the
 business of creating and licensing software in the field of
 computational chemistry and represents and warrants to the
 licensee that it is not a competitor of Gaussian, Inc. and that
 it will not use this program in any manner prohibited above.
 ---------------------------------------------------------------
  

 Cite this work as:
 Gaussian 09, Revision D.01,
 M. J. Frisch, G. W. Trucks, H. B. Schlegel, G. E. Scuseria, 
 M. A. Robb, J. R. Cheeseman, G. Scalmani, V. Barone, B. Mennucci, 
 G. A. Petersson, H. Nakatsuji, M. Caricato, X. Li, H. P. Hratchian, 
 A. F. Izmaylov, J. Bloino, G. Zheng, J. L. Sonnenberg, M. Hada, 
 M. Ehara, K. Toyota, R. Fukuda, J. Hasegawa, M. Ishida, T. Nakajima, 
 Y. Honda, O. Kitao, H. Nakai, T. Vreven, J. A. Montgomery, Jr., 
 J. E. Peralta, F. Ogliaro, M. Bearpark, J. J. Heyd, E. Brothers, 
 K. N. Kudin, V. N. Staroverov, T. Keith, R. Kobayashi, J. Normand, 
 K. Raghavachari, A. Rendell, J. C. Burant, S. S. Iyengar, J. Tomasi, 
 M. Cossi, N. Rega, J. M. Millam, M. Klene, J. E. Knox, J. B. Cross, 
 V. Bakken, C. Adamo, J. Jaramillo, R. Gomperts, R. E. Stratmann, 
 O. Yazyev, A. J. Austin, R. Cammi, C. Pomelli, J. W. Ochterski, 
 R. L. Martin, K. Morokuma, V. G. Zakrzewski, G. A. Voth, 
 P. Salvador, J. J. Dannenberg, S. Dapprich, A. D. Daniels, 
 O. Farkas, J. B. Foresman, J. V. Ortiz, J. Cioslowski, 
 and D. J. Fox, Gaussian, Inc., Wallingford CT, 2013.
 
 ******************************************
 Gaussian 09:  EM64L-G09RevD.01 24-Apr-2013
                14-Sep-2018 
 ******************************************
 %chk=Acrolina_Din_18.chk
 %nprocshared=10
 Will use up to   10 processors via shared memory.
 -------------------------------------------
 #p td=(nstates=15)/6-31+g(d) lc-wpbe charge
 -------------------------------------------
 1/18=10,28=-2,38=1,125=101/1;
 2/12=2,17=6,18=5,40=1/2;
 3/5=1,6=6,7=11,11=9,16=1,25=1,30=1,74=-41/1,2,8,3;
 4//1;
 5/5=2,38=5/2;
 8/6=1,10=2,108=15/1;
 9/41=15,42=1,70=2/14;
 6/7=2,8=2,9=2,10=2/1;
 99/5=1,9=1/99;
 Leave Link    1 at Fri Sep 14 16:33:20 2018, MaxMem=           0 cpu:         7.5
 (Enter /usr/local/pacerepov1/gaussian/G09D01LINDA/g09/l101.exe)
 ------------------
 Acroleina in Water
 ------------------
 Symbolic Z-matrix:
 Charge =  0 Multiplicity = 1
 C                     0.48515   0.48044  -1.43014 
 H                     1.4614    0.18777  -1.05573 
 H                     0.42924   0.87885  -2.43706 
 C                    -0.60513   0.34656  -0.65843 
 H                    -1.59169   0.63289  -1.01241 
 C                    -0.50852  -0.19911   0.7128 
 H                    -1.45849  -0.27211   1.27244 
 O                     0.54488  -0.56132   1.23652 
 O                    -1.20824  -1.18102   3.49833 
 H                    -0.83654  -0.76572   2.66804 
 H                    -0.81825  -0.72882   4.3005 
 O                     1.9389    1.59782   1.4048 
 H                     1.5351    2.37437   0.92107 
 H                     1.21126   1.0305    1.79044 
 O                     1.35946   3.72117   0.29301 
 H                     2.04295   4.248    -0.21227 
 H                     0.44341   4.01085   0.0155 
 O                    -0.07985  -3.09149   3.08806 
 H                    -0.63552  -2.26694   3.1949 
 H                    -0.48011  -3.83484   3.62399 
 O                    -2.96072   3.3714   -4.05545 
 H                    -2.29203   3.35578  -3.31207 
 H                    -3.85723   3.62472  -3.69199 
 O                     1.28669  -4.52537   1.72141 
 H                     0.68213  -3.86867   2.17231 
 H                     1.56592  -5.22638   2.37765 
 O                    -0.64132   4.5311   -0.44341 
 H                    -0.14558   5.29478  -0.857 
 H                    -1.58174   4.52107  -0.78335 
 O                     3.20527  -4.89813   0.38999 
 H                     2.43179  -4.48379   0.86967 
 H                     2.88449  -5.31886  -0.45862 
 O                     1.57263  -1.9784    4.42744 
 H                     2.41442  -1.7919    3.92082 
 H                     0.95444  -2.52077   3.85848 
 O                    -3.53991  -1.61829   3.81538 
 H                    -3.56257  -2.16216   4.65428 
 H                    -2.59069  -1.41328   3.57663 
 O                    -0.08092  -0.61171   5.57337 
 H                     0.33838   0.08246   6.15846 
 H                     0.63228  -1.09315   5.06388 
 O                     4.1093    1.74014   0.74713 
 H                     4.04331   1.99382  -0.21793 
 H                     3.19401   1.71866   1.14941 
 O                     0.71706  -6.50809  -0.38278 
 H                     0.5664   -5.66246   0.12932 
 H                     1.49036  -6.38744  -1.00529 
 O                    -3.28989   1.29816  -5.44762 
 H                    -3.01966   1.96524  -4.75331 
 H                    -3.452     1.76761  -6.31561 
 
 NAtoms=     50 NQM=       50 NQMF=       0 NMMI=      0 NMMIF=      0
                NMic=       0 NMicF=      0.
                    Isotopes and Nuclear Properties:
 (Nuclear quadrupole moments (NQMom) in fm**2, nuclear magnetic moments (NMagM)
  in nuclear magnetons)

  Atom         1           2           3           4           5           6           7           8           9          10
 IAtWgt=          12           1           1          12           1          12           1          16          16           1
 AtmWgt=  12.0000000   1.0078250   1.0078250  12.0000000   1.0078250  12.0000000   1.0078250  15.9949146  15.9949146   1.0078250
 NucSpn=           0           1           1           0           1           0           1           0           0           1
 AtZEff=   0.0000000   0.0000000   0.0000000   0.0000000   0.0000000   0.0000000   0.0000000   0.0000000   0.0000000   0.0000000
 NQMom=    0.0000000   0.0000000   0.0000000   0.0000000   0.0000000   0.0000000   0.0000000   0.0000000   0.0000000   0.0000000
 NMagM=    0.0000000   2.7928460   2.7928460   0.0000000   2.7928460   0.0000000   2.7928460   0.0000000   0.0000000   2.7928460
 AtZNuc=   6.0000000   1.0000000   1.0000000   6.0000000   1.0000000   6.0000000   1.0000000   8.0000000   8.0000000   1.0000000

  Atom        11          12          13          14          15          16          17          18          19          20
 IAtWgt=           1          16           1           1          16           1           1          16           1           1
 AtmWgt=   1.0078250  15.9949146   1.0078250   1.0078250  15.9949146   1.0078250   1.0078250  15.9949146   1.0078250   1.0078250
 NucSpn=           1           0           1           1           0           1           1           0           1           1
 AtZEff=   0.0000000   0.0000000   0.0000000   0.0000000   0.0000000   0.0000000   0.0000000   0.0000000   0.0000000   0.0000000
 NQMom=    0.0000000   0.0000000   0.0000000   0.0000000   0.0000000   0.0000000   0.0000000   0.0000000   0.0000000   0.0000000
 NMagM=    2.7928460   0.0000000   2.7928460   2.7928460   0.0000000   2.7928460   2.7928460   0.0000000   2.7928460   2.7928460
 AtZNuc=   1.0000000   8.0000000   1.0000000   1.0000000   8.0000000   1.0000000   1.0000000   8.0000000   1.0000000   1.0000000

  Atom        21          22          23          24          25          26          27          28          29          30
 IAtWgt=          16           1           1          16           1           1          16           1           1          16
 AtmWgt=  15.9949146   1.0078250   1.0078250  15.9949146   1.0078250   1.0078250  15.9949146   1.0078250   1.0078250  15.9949146
 NucSpn=           0           1           1           0           1           1           0           1           1           0
 AtZEff=   0.0000000   0.0000000   0.0000000   0.0000000   0.0000000   0.0000000   0.0000000   0.0000000   0.0000000   0.0000000
 NQMom=    0.0000000   0.0000000   0.0000000   0.0000000   0.0000000   0.0000000   0.0000000   0.0000000   0.0000000   0.0000000
 NMagM=    0.0000000   2.7928460   2.7928460   0.0000000   2.7928460   2.7928460   0.0000000   2.7928460   2.7928460   0.0000000
 AtZNuc=   8.0000000   1.0000000   1.0000000   8.0000000   1.0000000   1.0000000   8.0000000   1.0000000   1.0000000   8.0000000

  Atom        31          32          33          34          35          36          37          38          39          40
 IAtWgt=           1           1          16           1           1          16           1           1          16           1
 AtmWgt=   1.0078250   1.0078250  15.9949146   1.0078250   1.0078250  15.9949146   1.0078250   1.0078250  15.9949146   1.0078250
 NucSpn=           1           1           0           1           1           0           1           1           0           1
 AtZEff=   0.0000000   0.0000000   0.0000000   0.0000000   0.0000000   0.0000000   0.0000000   0.0000000   0.0000000   0.0000000
 NQMom=    0.0000000   0.0000000   0.0000000   0.0000000   0.0000000   0.0000000   0.0000000   0.0000000   0.0000000   0.0000000
 NMagM=    2.7928460   2.7928460   0.0000000   2.7928460   2.7928460   0.0000000   2.7928460   2.7928460   0.0000000   2.7928460
 AtZNuc=   1.0000000   1.0000000   8.0000000   1.0000000   1.0000000   8.0000000   1.0000000   1.0000000   8.0000000   1.0000000

  Atom        41          42          43          44          45          46          47          48          49          50
 IAtWgt=           1          16           1           1          16           1           1          16           1           1
 AtmWgt=   1.0078250  15.9949146   1.0078250   1.0078250  15.9949146   1.0078250   1.0078250  15.9949146   1.0078250   1.0078250
 NucSpn=           1           0           1           1           0           1           1           0           1           1
 AtZEff=   0.0000000   0.0000000   0.0000000   0.0000000   0.0000000   0.0000000   0.0000000   0.0000000   0.0000000   0.0000000
 NQMom=    0.0000000   0.0000000   0.0000000   0.0000000   0.0000000   0.0000000   0.0000000   0.0000000   0.0000000   0.0000000
 NMagM=    2.7928460   0.0000000   2.7928460   2.7928460   0.0000000   2.7928460   2.7928460   0.0000000   2.7928460   2.7928460
 AtZNuc=   1.0000000   8.0000000   1.0000000   1.0000000   8.0000000   1.0000000   1.0000000   8.0000000   1.0000000   1.0000000
 Background charge distribution read from input stream:
 Point Charges:
 XYZ=    2.9645   -1.1111   -4.7882 Q=   -0.8200 A=    0.0000 R=    0.0000 C=    0.0000
 XYZ=    2.3135   -0.6668   -5.4037 Q=    0.4100 A=    0.0000 R=    0.0000 C=    0.0000
 XYZ=    3.4724   -0.4145   -4.2813 Q=    0.4100 A=    0.0000 R=    0.0000 C=    0.0000
 XYZ=    2.1605    5.2479    2.0457 Q=   -0.8200 A=    0.0000 R=    0.0000 C=    0.0000
 XYZ=    1.7165    4.5063    1.5426 Q=    0.4100 A=    0.0000 R=    0.0000 C=    0.0000
 XYZ=    2.5556    5.8999    1.3985 Q=    0.4100 A=    0.0000 R=    0.0000 C=    0.0000
 XYZ=    3.7032   -1.6942    3.3294 Q=   -0.8200 A=    0.0000 R=    0.0000 C=    0.0000
 XYZ=    4.0222   -0.8138    3.6802 Q=    0.4100 A=    0.0000 R=    0.0000 C=    0.0000
 XYZ=    4.0105   -1.8075    2.3845 Q=    0.4100 A=    0.0000 R=    0.0000 C=    0.0000
 XYZ=   -3.0120    4.9160   -0.8385 Q=   -0.8200 A=    0.0000 R=    0.0000 C=    0.0000
 XYZ=   -3.8905    4.5088   -1.0886 Q=    0.4100 A=    0.0000 R=    0.0000 C=    0.0000
 XYZ=   -2.9817    5.0619    0.1503 Q=    0.4100 A=    0.0000 R=    0.0000 C=    0.0000
 XYZ=    4.6648   -2.4171    1.2233 Q=   -0.8200 A=    0.0000 R=    0.0000 C=    0.0000
 XYZ=    4.6400   -2.8842    0.3394 Q=    0.4100 A=    0.0000 R=    0.0000 C=    0.0000
 XYZ=    4.8170   -3.0870    1.9500 Q=    0.4100 A=    0.0000 R=    0.0000 C=    0.0000
 XYZ=    0.9001    6.0389   -1.4864 Q=   -0.8200 A=    0.0000 R=    0.0000 C=    0.0000
 XYZ=    1.7332    5.4863   -1.5118 Q=    0.4100 A=    0.0000 R=    0.0000 C=    0.0000
 XYZ=    0.6625    6.3266   -2.4142 Q=    0.4100 A=    0.0000 R=    0.0000 C=    0.0000
 XYZ=    4.8265   -3.5857   -0.7535 Q=   -0.8200 A=    0.0000 R=    0.0000 C=    0.0000
 XYZ=    4.1912   -4.2940   -0.4456 Q=    0.4100 A=    0.0000 R=    0.0000 C=    0.0000
 XYZ=    5.7591   -3.9464   -0.7418 Q=    0.4100 A=    0.0000 R=    0.0000 C=    0.0000
 XYZ=    4.1300   -3.0218   -4.2166 Q=   -0.8200 A=    0.0000 R=    0.0000 C=    0.0000
 XYZ=    4.8284   -2.8663   -3.5180 Q=    0.4100 A=    0.0000 R=    0.0000 C=    0.0000
 XYZ=    3.6079   -2.1808   -4.3588 Q=    0.4100 A=    0.0000 R=    0.0000 C=    0.0000
 XYZ=    1.5459   -0.0898   -6.3949 Q=   -0.8200 A=    0.0000 R=    0.0000 C=    0.0000
 XYZ=    1.7167    0.7082   -6.9730 Q=    0.4100 A=    0.0000 R=    0.0000 C=    0.0000
 XYZ=    0.5601   -0.2222   -6.2924 Q=    0.4100 A=    0.0000 R=    0.0000 C=    0.0000
 XYZ=   -2.2683    4.4324   -6.1132 Q=   -0.8200 A=    0.0000 R=    0.0000 C=    0.0000
 XYZ=   -2.3950    3.9171   -5.2656 Q=    0.4100 A=    0.0000 R=    0.0000 C=    0.0000
 XYZ=   -3.1612    4.6834   -6.4872 Q=    0.4100 A=    0.0000 R=    0.0000 C=    0.0000
 XYZ=    5.4758   -0.1943    0.7441 Q=   -0.8200 A=    0.0000 R=    0.0000 C=    0.0000
 XYZ=    4.8071    0.5493    0.7432 Q=    0.4100 A=    0.0000 R=    0.0000 C=    0.0000
 XYZ=    5.0146   -1.0570    0.9518 Q=    0.4100 A=    0.0000 R=    0.0000 C=    0.0000
 XYZ=   -3.5302    5.3047    1.6621 Q=   -0.8200 A=    0.0000 R=    0.0000 C=    0.0000
 XYZ=   -4.3561    4.7795    1.8679 Q=    0.4100 A=    0.0000 R=    0.0000 C=    0.0000
 XYZ=   -2.7741    4.9708    2.2250 Q=    0.4100 A=    0.0000 R=    0.0000 C=    0.0000
 XYZ=    2.8729    4.8188   -1.0392 Q=   -0.8200 A=    0.0000 R=    0.0000 C=    0.0000
 XYZ=    3.0782    5.5784   -0.4221 Q=    0.4100 A=    0.0000 R=    0.0000 C=    0.0000
 XYZ=    3.6009    4.7361   -1.7197 Q=    0.4100 A=    0.0000 R=    0.0000 C=    0.0000
 XYZ=   -2.4509    6.6809   -2.3425 Q=   -0.8200 A=    0.0000 R=    0.0000 C=    0.0000
 XYZ=   -2.7098    5.9722   -1.6862 Q=    0.4100 A=    0.0000 R=    0.0000 C=    0.0000
 XYZ=   -2.6621    7.5811   -1.9617 Q=    0.4100 A=    0.0000 R=    0.0000 C=    0.0000
 XYZ=    4.4683    1.9926   -1.8372 Q=   -0.8200 A=    0.0000 R=    0.0000 C=    0.0000
 XYZ=    4.2719    2.8995   -2.2102 Q=    0.4100 A=    0.0000 R=    0.0000 C=    0.0000
 XYZ=    4.6983    1.3679   -2.5835 Q=    0.4100 A=    0.0000 R=    0.0000 C=    0.0000
 XYZ=    5.2978   -1.8551   -2.2771 Q=   -0.8200 A=    0.0000 R=    0.0000 C=    0.0000
 XYZ=    6.1796   -1.4705   -2.0040 Q=    0.4100 A=    0.0000 R=    0.0000 C=    0.0000
 XYZ=    5.0575   -2.6068   -1.6629 Q=    0.4100 A=    0.0000 R=    0.0000 C=    0.0000
 XYZ=    5.0252    0.2222   -3.4907 Q=   -0.8200 A=    0.0000 R=    0.0000 C=    0.0000
 XYZ=    5.6752    0.2748   -4.2488 Q=    0.4100 A=    0.0000 R=    0.0000 C=    0.0000
 XYZ=    5.0408   -0.6990   -3.1016 Q=    0.4100 A=    0.0000 R=    0.0000 C=    0.0000
 XYZ=   -1.1762   -2.5013    6.4102 Q=   -0.8200 A=    0.0000 R=    0.0000 C=    0.0000
 XYZ=   -0.8160   -1.6295    6.0780 Q=    0.4100 A=    0.0000 R=    0.0000 C=    0.0000
 XYZ=   -2.1346   -2.5910    6.1389 Q=    0.4100 A=    0.0000 R=    0.0000 C=    0.0000
 XYZ=    2.2442   -3.0216    6.2629 Q=   -0.8200 A=    0.0000 R=    0.0000 C=    0.0000
 XYZ=    1.8965   -2.5525    5.4510 Q=    0.4100 A=    0.0000 R=    0.0000 C=    0.0000
 XYZ=    2.5401   -2.3453    6.9374 Q=    0.4100 A=    0.0000 R=    0.0000 C=    0.0000
 XYZ=   -4.9776    3.9777   -3.3157 Q=   -0.8200 A=    0.0000 R=    0.0000 C=    0.0000
 XYZ=   -5.0151    3.8472   -2.3249 Q=    0.4100 A=    0.0000 R=    0.0000 C=    0.0000
 XYZ=   -5.7878    3.5696   -3.7365 Q=    0.4100 A=    0.0000 R=    0.0000 C=    0.0000
 XYZ=    3.5942   -3.7243    4.5305 Q=   -0.8200 A=    0.0000 R=    0.0000 C=    0.0000
 XYZ=    3.7736   -2.8851    4.0170 Q=    0.4100 A=    0.0000 R=    0.0000 C=    0.0000
 XYZ=    3.0995   -3.5016    5.3706 Q=    0.4100 A=    0.0000 R=    0.0000 C=    0.0000
 XYZ=   -5.2271    3.9232   -1.0602 Q=   -0.8200 A=    0.0000 R=    0.0000 C=    0.0000
 XYZ=   -5.8364    4.6170   -0.6763 Q=    0.4100 A=    0.0000 R=    0.0000 C=    0.0000
 XYZ=   -5.4778    3.0240   -0.7014 Q=    0.4100 A=    0.0000 R=    0.0000 C=    0.0000
 XYZ=    4.0045   -6.3536    2.0574 Q=   -0.8200 A=    0.0000 R=    0.0000 C=    0.0000
 XYZ=    3.5938   -5.8286    1.3118 Q=    0.4100 A=    0.0000 R=    0.0000 C=    0.0000
 XYZ=    3.4143   -6.3055    2.8633 Q=    0.4100 A=    0.0000 R=    0.0000 C=    0.0000
 XYZ=   -0.4095    6.8677   -3.4432 Q=   -0.8200 A=    0.0000 R=    0.0000 C=    0.0000
 XYZ=   -1.3028    6.7033   -3.0248 Q=    0.4100 A=    0.0000 R=    0.0000 C=    0.0000
 XYZ=   -0.3657    6.4041   -4.3283 Q=    0.4100 A=    0.0000 R=    0.0000 C=    0.0000
 XYZ=   -5.6944   -1.6028    3.0439 Q=   -0.8200 A=    0.0000 R=    0.0000 C=    0.0000
 XYZ=   -4.6991   -1.5397    3.1164 Q=    0.4100 A=    0.0000 R=    0.0000 C=    0.0000
 XYZ=   -5.9957   -2.5008    3.3647 Q=    0.4100 A=    0.0000 R=    0.0000 C=    0.0000
 XYZ=   -1.5222   -6.9383    0.3119 Q=   -0.8200 A=    0.0000 R=    0.0000 C=    0.0000
 XYZ=   -0.6448   -6.7985   -0.1471 Q=    0.4100 A=    0.0000 R=    0.0000 C=    0.0000
 XYZ=   -1.7457   -7.9130    0.3139 Q=    0.4100 A=    0.0000 R=    0.0000 C=    0.0000
 XYZ=   -5.3173    0.3332   -5.1631 Q=   -0.8200 A=    0.0000 R=    0.0000 C=    0.0000
 XYZ=   -5.3286   -0.5985   -4.7998 Q=    0.4100 A=    0.0000 R=    0.0000 C=    0.0000
 XYZ=   -4.3816    0.6857   -5.1475 Q=    0.4100 A=    0.0000 R=    0.0000 C=    0.0000
 XYZ=   -0.4658    5.8410   -5.4478 Q=   -0.8200 A=    0.0000 R=    0.0000 C=    0.0000
 XYZ=   -1.2309    5.2527   -5.7096 Q=    0.4100 A=    0.0000 R=    0.0000 C=    0.0000
 XYZ=    0.3959    5.3643   -5.6218 Q=    0.4100 A=    0.0000 R=    0.0000 C=    0.0000
 XYZ=    3.0874   -6.1509   -1.5820 Q=   -0.8200 A=    0.0000 R=    0.0000 C=    0.0000
 XYZ=    3.8950   -6.6185   -1.2225 Q=    0.4100 A=    0.0000 R=    0.0000 C=    0.0000
 XYZ=    3.2939   -5.7768   -2.4862 Q=    0.4100 A=    0.0000 R=    0.0000 C=    0.0000
 XYZ=   -0.8981   -5.0276    4.1127 Q=   -0.8200 A=    0.0000 R=    0.0000 C=    0.0000
 XYZ=   -1.3688   -5.7364    3.5873 Q=    0.4100 A=    0.0000 R=    0.0000 C=    0.0000
 XYZ=   -0.1052   -5.4259    4.5740 Q=    0.4100 A=    0.0000 R=    0.0000 C=    0.0000
 XYZ=    2.2498   -5.5244    3.7251 Q=   -0.8200 A=    0.0000 R=    0.0000 C=    0.0000
 XYZ=    1.5966   -5.8187    4.4227 Q=    0.4100 A=    0.0000 R=    0.0000 C=    0.0000
 XYZ=    2.7970   -4.7661    4.0796 Q=    0.4100 A=    0.0000 R=    0.0000 C=    0.0000
 XYZ=    4.4298    4.1078   -2.7927 Q=   -0.8200 A=    0.0000 R=    0.0000 C=    0.0000
 XYZ=    5.3421    4.2377   -2.4042 Q=    0.4100 A=    0.0000 R=    0.0000 C=    0.0000
 XYZ=    4.4400    4.3630   -3.7596 Q=    0.4100 A=    0.0000 R=    0.0000 C=    0.0000
 XYZ=    0.5955    6.4586    3.4340 Q=   -0.8200 A=    0.0000 R=    0.0000 C=    0.0000
 XYZ=    0.2770    7.0201    2.6703 Q=    0.4100 A=    0.0000 R=    0.0000 C=    0.0000
 XYZ=    1.3365    5.8632    3.1236 Q=    0.4100 A=    0.0000 R=    0.0000 C=    0.0000
 XYZ=    5.4007    2.9104    2.4176 Q=   -0.8200 A=    0.0000 R=    0.0000 C=    0.0000
 XYZ=    4.8787    3.6475    2.8469 Q=    0.4100 A=    0.0000 R=    0.0000 C=    0.0000
 XYZ=    4.8284    2.4472    1.7408 Q=    0.4100 A=    0.0000 R=    0.0000 C=    0.0000
 XYZ=    5.1246   -4.2906    2.7010 Q=   -0.8200 A=    0.0000 R=    0.0000 C=    0.0000
 XYZ=    4.8806   -4.2318    3.6690 Q=    0.4100 A=    0.0000 R=    0.0000 C=    0.0000
 XYZ=    4.7002   -5.1019    2.2990 Q=    0.4100 A=    0.0000 R=    0.0000 C=    0.0000
 XYZ=    4.5783    0.1038    4.7594 Q=   -0.8200 A=    0.0000 R=    0.0000 C=    0.0000
 XYZ=    5.0186   -0.4493    5.4666 Q=    0.4100 A=    0.0000 R=    0.0000 C=    0.0000
 XYZ=    4.0267    0.8181    5.1902 Q=    0.4100 A=    0.0000 R=    0.0000 C=    0.0000
 XYZ=   -2.6885    7.3931    1.1413 Q=   -0.8200 A=    0.0000 R=    0.0000 C=    0.0000
 XYZ=   -2.9629    8.1436    1.7426 Q=    0.4100 A=    0.0000 R=    0.0000 C=    0.0000
 XYZ=   -3.1262    6.5464    1.4440 Q=    0.4100 A=    0.0000 R=    0.0000 C=    0.0000
 XYZ=    6.4276    1.2303   -0.8942 Q=   -0.8200 A=    0.0000 R=    0.0000 C=    0.0000
 XYZ=    5.5704    1.6772   -1.1501 Q=    0.4100 A=    0.0000 R=    0.0000 C=    0.0000
 XYZ=    6.2396    0.5005   -0.2368 Q=    0.4100 A=    0.0000 R=    0.0000 C=    0.0000
 XYZ=   -1.9769   -6.8354    2.8290 Q=   -0.8200 A=    0.0000 R=    0.0000 C=    0.0000
 XYZ=   -1.6199   -6.7748    1.8968 Q=    0.4100 A=    0.0000 R=    0.0000 C=    0.0000
 XYZ=   -2.9510   -7.0596    2.7989 Q=    0.4100 A=    0.0000 R=    0.0000 C=    0.0000
 XYZ=    1.3283    7.8074    0.1745 Q=   -0.8200 A=    0.0000 R=    0.0000 C=    0.0000
 XYZ=    0.7001    7.7681    0.9516 Q=    0.4100 A=    0.0000 R=    0.0000 C=    0.0000
 XYZ=    0.9858    7.2227   -0.5609 Q=    0.4100 A=    0.0000 R=    0.0000 C=    0.0000
 XYZ=    3.9304   -5.4849   -3.8681 Q=   -0.8200 A=    0.0000 R=    0.0000 C=    0.0000
 XYZ=    3.9757   -4.4977   -4.0213 Q=    0.4100 A=    0.0000 R=    0.0000 C=    0.0000
 XYZ=    3.2331   -5.8830   -4.4642 Q=    0.4100 A=    0.0000 R=    0.0000 C=    0.0000
 XYZ=    3.1473   -1.5891   -7.6397 Q=   -0.8200 A=    0.0000 R=    0.0000 C=    0.0000
 XYZ=    3.2883   -2.3431   -6.9981 Q=    0.4100 A=    0.0000 R=    0.0000 C=    0.0000
 XYZ=    2.4902   -0.9415   -7.2538 Q=    0.4100 A=    0.0000 R=    0.0000 C=    0.0000
 XYZ=    4.0416    4.7273    3.4484 Q=   -0.8200 A=    0.0000 R=    0.0000 C=    0.0000
 XYZ=    3.6516    4.4076    4.3119 Q=    0.4100 A=    0.0000 R=    0.0000 C=    0.0000
 XYZ=    3.3037    4.9395    2.8077 Q=    0.4100 A=    0.0000 R=    0.0000 C=    0.0000
 XYZ=    1.4520    0.7486    7.2182 Q=   -0.8200 A=    0.0000 R=    0.0000 C=    0.0000
 XYZ=    1.7649   -0.1692    7.4626 Q=    0.4100 A=    0.0000 R=    0.0000 C=    0.0000
 XYZ=    2.1279    1.1838    6.6235 Q=    0.4100 A=    0.0000 R=    0.0000 C=    0.0000
 XYZ=   -4.4073    6.5704   -3.6302 Q=   -0.8200 A=    0.0000 R=    0.0000 C=    0.0000
 XYZ=   -3.6162    6.7081   -3.0342 Q=    0.4100 A=    0.0000 R=    0.0000 C=    0.0000
 XYZ=   -4.6387    5.5979   -3.6576 Q=    0.4100 A=    0.0000 R=    0.0000 C=    0.0000
 XYZ=    4.0117   -3.4840   -6.4806 Q=   -0.8200 A=    0.0000 R=    0.0000 C=    0.0000
 XYZ=    4.1160   -3.2471   -5.5146 Q=    0.4100 A=    0.0000 R=    0.0000 C=    0.0000
 XYZ=    4.9124   -3.6495   -6.8823 Q=    0.4100 A=    0.0000 R=    0.0000 C=    0.0000
 XYZ=    3.2487    1.7277    5.8867 Q=   -0.8200 A=    0.0000 R=    0.0000 C=    0.0000
 XYZ=    3.8598    1.6470    6.6740 Q=    0.4100 A=    0.0000 R=    0.0000 C=    0.0000
 XYZ=    3.1432    2.6921    5.6442 Q=    0.4100 A=    0.0000 R=    0.0000 C=    0.0000
 XYZ=   -5.8407    4.0837    1.7743 Q=   -0.8200 A=    0.0000 R=    0.0000 C=    0.0000
 XYZ=   -6.2090    4.6680    1.0511 Q=    0.4100 A=    0.0000 R=    0.0000 C=    0.0000
 XYZ=   -6.1467    4.4219    2.6642 Q=    0.4100 A=    0.0000 R=    0.0000 C=    0.0000
 XYZ=    0.4002   -4.0575    6.9450 Q=   -0.8200 A=    0.0000 R=    0.0000 C=    0.0000
 XYZ=    1.3290   -3.7067    6.8250 Q=    0.4100 A=    0.0000 R=    0.0000 C=    0.0000
 XYZ=   -0.2581   -3.3686    6.6415 Q=    0.4100 A=    0.0000 R=    0.0000 C=    0.0000
 XYZ=   -0.7705    4.7130   -7.9360 Q=   -0.8200 A=    0.0000 R=    0.0000 C=    0.0000
 XYZ=   -1.3548    4.6512   -7.1268 Q=    0.4100 A=    0.0000 R=    0.0000 C=    0.0000
 XYZ=    0.1682    4.4731   -7.6884 Q=    0.4100 A=    0.0000 R=    0.0000 C=    0.0000
 XYZ=   -3.0405   -5.2560    5.1018 Q=   -0.8200 A=    0.0000 R=    0.0000 C=    0.0000
 XYZ=   -2.1784   -4.9987    4.6651 Q=    0.4100 A=    0.0000 R=    0.0000 C=    0.0000
 XYZ=   -2.9151   -6.1076    5.6109 Q=    0.4100 A=    0.0000 R=    0.0000 C=    0.0000
 XYZ=   -0.2179    7.9099    1.8909 Q=   -0.8200 A=    0.0000 R=    0.0000 C=    0.0000
 XYZ=   -0.4879    8.6813    2.4671 Q=    0.4100 A=    0.0000 R=    0.0000 C=    0.0000
 XYZ=   -0.9985    7.6172    1.3385 Q=    0.4100 A=    0.0000 R=    0.0000 C=    0.0000
 XYZ=   -3.3142   -2.9394    5.8695 Q=   -0.8200 A=    0.0000 R=    0.0000 C=    0.0000
 XYZ=   -3.9158   -2.8509    6.6634 Q=    0.4100 A=    0.0000 R=    0.0000 C=    0.0000
 XYZ=   -3.2468   -3.9022    5.6080 Q=    0.4100 A=    0.0000 R=    0.0000 C=    0.0000
 XYZ=    1.3923    3.9187   -7.5410 Q=   -0.8200 A=    0.0000 R=    0.0000 C=    0.0000
 XYZ=    1.9918    4.4739   -6.9646 Q=    0.4100 A=    0.0000 R=    0.0000 C=    0.0000
 XYZ=    1.6672    2.9591   -7.4808 Q=    0.4100 A=    0.0000 R=    0.0000 C=    0.0000
 XYZ=    3.1605    6.5774    0.4730 Q=   -0.8200 A=    0.0000 R=    0.0000 C=    0.0000
 XYZ=    2.4405    7.2503    0.3032 Q=    0.4100 A=    0.0000 R=    0.0000 C=    0.0000
 XYZ=    3.9596    7.0353    0.8625 Q=    0.4100 A=    0.0000 R=    0.0000 C=    0.0000
 XYZ=    2.5202    5.3874   -6.0173 Q=   -0.8200 A=    0.0000 R=    0.0000 C=    0.0000
 XYZ=    2.6238    6.3293   -6.3368 Q=    0.4100 A=    0.0000 R=    0.0000 C=    0.0000
 XYZ=    3.3568    5.0996   -5.5512 Q=    0.4100 A=    0.0000 R=    0.0000 C=    0.0000
 XYZ=    7.4304    0.1702    1.8812 Q=   -0.8200 A=    0.0000 R=    0.0000 C=    0.0000
 XYZ=    7.0990    0.5124    2.7604 Q=    0.4100 A=    0.0000 R=    0.0000 C=    0.0000
 XYZ=    6.6545   -0.1318    1.3272 Q=    0.4100 A=    0.0000 R=    0.0000 C=    0.0000
 XYZ=   -5.7578    0.3173    5.0996 Q=   -0.8200 A=    0.0000 R=    0.0000 C=    0.0000
 XYZ=   -4.8482    0.6197    5.3846 Q=    0.4100 A=    0.0000 R=    0.0000 C=    0.0000
 XYZ=   -5.6733   -0.3057    4.3219 Q=    0.4100 A=    0.0000 R=    0.0000 C=    0.0000
 XYZ=   -7.6432    2.6034    1.5978 Q=   -0.8200 A=    0.0000 R=    0.0000 C=    0.0000
 XYZ=   -6.7299    3.0008    1.6872 Q=    0.4100 A=    0.0000 R=    0.0000 C=    0.0000
 XYZ=   -7.7665    2.2574    0.6676 Q=    0.4100 A=    0.0000 R=    0.0000 C=    0.0000
 XYZ=    1.3198    5.4782    5.5210 Q=   -0.8200 A=    0.0000 R=    0.0000 C=    0.0000
 XYZ=    0.8613    5.9122    4.7454 Q=    0.4100 A=    0.0000 R=    0.0000 C=    0.0000
 XYZ=    0.6368    5.1808    6.1882 Q=    0.4100 A=    0.0000 R=    0.0000 C=    0.0000
 XYZ=   -6.9476    3.0064   -4.4604 Q=   -0.8200 A=    0.0000 R=    0.0000 C=    0.0000
 XYZ=   -7.0293    3.4255   -5.3647 Q=    0.4100 A=    0.0000 R=    0.0000 C=    0.0000
 XYZ=   -6.4461    2.1445   -4.5366 Q=    0.4100 A=    0.0000 R=    0.0000 C=    0.0000
 XYZ=    6.5191    1.2269    4.0029 Q=   -0.8200 A=    0.0000 R=    0.0000 C=    0.0000
 XYZ=    6.1607    1.9353    3.3948 Q=    0.4100 A=    0.0000 R=    0.0000 C=    0.0000
 XYZ=    5.7640    0.6666    4.3434 Q=    0.4100 A=    0.0000 R=    0.0000 C=    0.0000
 XYZ=    2.2111    1.6246   -7.8621 Q=   -0.8200 A=    0.0000 R=    0.0000 C=    0.0000
 XYZ=    3.2040    1.6915   -7.7643 Q=    0.4100 A=    0.0000 R=    0.0000 C=    0.0000
 XYZ=    1.9863    1.3440   -8.7952 Q=    0.4100 A=    0.0000 R=    0.0000 C=    0.0000
 XYZ=    7.3379   -0.7957   -1.8056 Q=   -0.8200 A=    0.0000 R=    0.0000 C=    0.0000
 XYZ=    6.9547    0.1136   -1.6431 Q=    0.4100 A=    0.0000 R=    0.0000 C=    0.0000
 XYZ=    7.5929   -1.2108   -0.9323 Q=    0.4100 A=    0.0000 R=    0.0000 C=    0.0000
 XYZ=    7.1180   -5.0934    1.5836 Q=   -0.8200 A=    0.0000 R=    0.0000 C=    0.0000
 XYZ=    6.4619   -4.5161    2.0697 Q=    0.4100 A=    0.0000 R=    0.0000 C=    0.0000
 XYZ=    6.9746   -5.0038    0.5980 Q=    0.4100 A=    0.0000 R=    0.0000 C=    0.0000
 XYZ=    0.6421   -6.0319    5.3701 Q=   -0.8200 A=    0.0000 R=    0.0000 C=    0.0000
 XYZ=    0.2574   -6.9505    5.4608 Q=    0.4100 A=    0.0000 R=    0.0000 C=    0.0000
 XYZ=    0.2622   -5.4399    6.0809 Q=    0.4100 A=    0.0000 R=    0.0000 C=    0.0000
 XYZ=    0.1057    2.3529    8.3549 Q=   -0.8200 A=    0.0000 R=    0.0000 C=    0.0000
 XYZ=    0.6097    1.7586    7.7282 Q=    0.4100 A=    0.0000 R=    0.0000 C=    0.0000
 XYZ=   -0.8089    1.9780    8.5067 Q=    0.4100 A=    0.0000 R=    0.0000 C=    0.0000
 XYZ=   -2.5236    8.7075   -0.7995 Q=   -0.8200 A=    0.0000 R=    0.0000 C=    0.0000
 XYZ=   -1.6213    9.0605   -1.0472 Q=    0.4100 A=    0.0000 R=    0.0000 C=    0.0000
 XYZ=   -2.4487    8.1533    0.0295 Q=    0.4100 A=    0.0000 R=    0.0000 C=    0.0000
 XYZ=   -7.3251    1.7912   -0.6123 Q=   -0.8200 A=    0.0000 R=    0.0000 C=    0.0000
 XYZ=   -7.6987    0.8651   -0.6667 Q=    0.4100 A=    0.0000 R=    0.0000 C=    0.0000
 XYZ=   -7.5839    2.3035   -1.4313 Q=    0.4100 A=    0.0000 R=    0.0000 C=    0.0000
 XYZ=   -4.0689    2.3761   -7.5131 Q=   -0.8200 A=    0.0000 R=    0.0000 C=    0.0000
 XYZ=   -4.9786    1.9883   -7.3640 Q=    0.4100 A=    0.0000 R=    0.0000 C=    0.0000
 XYZ=   -4.0899    3.3577   -7.3233 Q=    0.4100 A=    0.0000 R=    0.0000 C=    0.0000
 XYZ=   -0.2716    9.3776   -3.3737 Q=   -0.8200 A=    0.0000 R=    0.0000 C=    0.0000
 XYZ=   -0.4832    9.7458   -4.2791 Q=    0.4100 A=    0.0000 R=    0.0000 C=    0.0000
 XYZ=   -0.3459    8.3805   -3.3936 Q=    0.4100 A=    0.0000 R=    0.0000 C=    0.0000
 XYZ=   -7.3663   -1.6454    1.3373 Q=   -0.8200 A=    0.0000 R=    0.0000 C=    0.0000
 XYZ=   -6.6555   -1.4108    2.0005 Q=    0.4100 A=    0.0000 R=    0.0000 C=    0.0000
 XYZ=   -7.2470   -2.5934    1.0422 Q=    0.4100 A=    0.0000 R=    0.0000 C=    0.0000
 XYZ=    3.1254   -1.1268    7.6988 Q=   -0.8200 A=    0.0000 R=    0.0000 C=    0.0000
 XYZ=    3.5339   -1.3452    8.5851 Q=    0.4100 A=    0.0000 R=    0.0000 C=    0.0000
 XYZ=    3.8422   -1.0848    7.0028 Q=    0.4100 A=    0.0000 R=    0.0000 C=    0.0000
 XYZ=    5.8605   -5.9294   -2.7161 Q=   -0.8200 A=    0.0000 R=    0.0000 C=    0.0000
 XYZ=    5.0386   -5.8225   -3.2756 Q=    0.4100 A=    0.0000 R=    0.0000 C=    0.0000
 XYZ=    6.6473   -6.1011   -3.3089 Q=    0.4100 A=    0.0000 R=    0.0000 C=    0.0000
 XYZ=   -4.5674   -6.0959    1.5846 Q=   -0.8200 A=    0.0000 R=    0.0000 C=    0.0000
 XYZ=   -4.3184   -7.0611    1.5036 Q=    0.4100 A=    0.0000 R=    0.0000 C=    0.0000
 XYZ=   -4.9153   -5.7668    0.7067 Q=    0.4100 A=    0.0000 R=    0.0000 C=    0.0000
 XYZ=    5.3479   -0.6681   -7.4365 Q=   -0.8200 A=    0.0000 R=    0.0000 C=    0.0000
 XYZ=    5.5222   -0.5881   -6.4551 Q=    0.4100 A=    0.0000 R=    0.0000 C=    0.0000
 XYZ=    4.4512   -1.0858   -7.5828 Q=    0.4100 A=    0.0000 R=    0.0000 C=    0.0000
 XYZ=    4.7590    4.8420   -5.0753 Q=   -0.8200 A=    0.0000 R=    0.0000 C=    0.0000
 XYZ=    5.4929    5.5196   -5.0269 Q=    0.4100 A=    0.0000 R=    0.0000 C=    0.0000
 XYZ=    5.0850    4.0319   -5.5625 Q=    0.4100 A=    0.0000 R=    0.0000 C=    0.0000
 XYZ=    3.3086    4.0842    5.6056 Q=   -0.8200 A=    0.0000 R=    0.0000 C=    0.0000
 XYZ=    4.0603    4.5699    6.0519 Q=    0.4100 A=    0.0000 R=    0.0000 C=    0.0000
 XYZ=    2.4964    4.6674    5.5919 Q=    0.4100 A=    0.0000 R=    0.0000 C=    0.0000
 XYZ=   -2.3461   -1.8603    8.6762 Q=   -0.8200 A=    0.0000 R=    0.0000 C=    0.0000
 XYZ=   -1.8353   -2.1739    7.8757 Q=    0.4100 A=    0.0000 R=    0.0000 C=    0.0000
 XYZ=   -1.9116   -2.2093    9.5065 Q=    0.4100 A=    0.0000 R=    0.0000 C=    0.0000
 XYZ=    6.8876   -4.7835   -0.9626 Q=   -0.8200 A=    0.0000 R=    0.0000 C=    0.0000
 XYZ=    7.8723   -4.9539   -0.9988 Q=    0.4100 A=    0.0000 R=    0.0000 C=    0.0000
 XYZ=    6.4386   -5.2617   -1.7175 Q=    0.4100 A=    0.0000 R=    0.0000 C=    0.0000
 XYZ=    5.1528   -7.1165   -0.8283 Q=   -0.8200 A=    0.0000 R=    0.0000 C=    0.0000
 XYZ=    5.7383   -7.7508   -0.3236 Q=    0.4100 A=    0.0000 R=    0.0000 C=    0.0000
 XYZ=    5.6370   -6.7900   -1.6401 Q=    0.4100 A=    0.0000 R=    0.0000 C=    0.0000
 XYZ=   -6.7122    5.2723   -0.0821 Q=   -0.8200 A=    0.0000 R=    0.0000 C=    0.0000
 XYZ=   -6.5636    6.2554   -0.1890 Q=    0.4100 A=    0.0000 R=    0.0000 C=    0.0000
 XYZ=   -7.6038    5.0267   -0.4628 Q=    0.4100 A=    0.0000 R=    0.0000 C=    0.0000
 XYZ=   -6.2267    1.6450   -7.0064 Q=   -0.8200 A=    0.0000 R=    0.0000 C=    0.0000
 XYZ=   -6.5520    1.1424   -7.8073 Q=    0.4100 A=    0.0000 R=    0.0000 C=    0.0000
 XYZ=   -5.9132    0.9978   -6.3115 Q=    0.4100 A=    0.0000 R=    0.0000 C=    0.0000
 XYZ=    6.6478   -0.0409   -5.2058 Q=   -0.8200 A=    0.0000 R=    0.0000 C=    0.0000
 XYZ=    7.0601    0.8683   -5.2657 Q=    0.4100 A=    0.0000 R=    0.0000 C=    0.0000
 XYZ=    7.3673   -0.7264   -5.0947 Q=    0.4100 A=    0.0000 R=    0.0000 C=    0.0000
 XYZ=    2.8759   -5.0924   -7.8709 Q=   -0.8200 A=    0.0000 R=    0.0000 C=    0.0000
 XYZ=    3.6173   -5.1421   -8.5402 Q=    0.4100 A=    0.0000 R=    0.0000 C=    0.0000
 XYZ=    3.1725   -4.5505   -7.0846 Q=    0.4100 A=    0.0000 R=    0.0000 C=    0.0000
 XYZ=   -5.0075   -5.5092    3.8582 Q=   -0.8200 A=    0.0000 R=    0.0000 C=    0.0000
 XYZ=   -4.1340   -5.4927    4.3448 Q=    0.4100 A=    0.0000 R=    0.0000 C=    0.0000
 XYZ=   -4.8509   -5.7504    2.9004 Q=    0.4100 A=    0.0000 R=    0.0000 C=    0.0000
 XYZ=   -2.0717   -4.9620   -7.7607 Q=   -0.8200 A=    0.0000 R=    0.0000 C=    0.0000
 XYZ=   -1.1010   -4.7737   -7.6112 Q=    0.4100 A=    0.0000 R=    0.0000 C=    0.0000
 XYZ=   -2.4178   -5.5366   -7.0191 Q=    0.4100 A=    0.0000 R=    0.0000 C=    0.0000
 XYZ=    4.4806    1.5968   -7.6752 Q=   -0.8200 A=    0.0000 R=    0.0000 C=    0.0000
 XYZ=    5.0905    2.1944   -7.1547 Q=    0.4100 A=    0.0000 R=    0.0000 C=    0.0000
 XYZ=    4.7758    0.6470   -7.5709 Q=    0.4100 A=    0.0000 R=    0.0000 C=    0.0000
 XYZ=   -8.1513    2.9370   -2.4969 Q=   -0.8200 A=    0.0000 R=    0.0000 C=    0.0000
 XYZ=   -7.5948    2.9595   -3.3275 Q=    0.4100 A=    0.0000 R=    0.0000 C=    0.0000
 XYZ=   -8.9860    2.4137   -2.6690 Q=    0.4100 A=    0.0000 R=    0.0000 C=    0.0000
 XYZ=    5.2697   -1.2775    6.5193 Q=   -0.8200 A=    0.0000 R=    0.0000 C=    0.0000
 XYZ=    5.7176   -0.8085    7.2805 Q=    0.4100 A=    0.0000 R=    0.0000 C=    0.0000
 XYZ=    5.9239   -1.8878    6.0726 Q=    0.4100 A=    0.0000 R=    0.0000 C=    0.0000
 XYZ=   -4.2097    4.7743   -7.5011 Q=   -0.8200 A=    0.0000 R=    0.0000 C=    0.0000
 XYZ=   -3.7331    5.0912   -8.3212 Q=    0.4100 A=    0.0000 R=    0.0000 C=    0.0000
 XYZ=   -5.1967    4.7948   -7.6604 Q=    0.4100 A=    0.0000 R=    0.0000 C=    0.0000
 XYZ=    6.1304   -7.4435    2.2248 Q=   -0.8200 A=    0.0000 R=    0.0000 C=    0.0000
 XYZ=    6.5531   -6.5671    1.9940 Q=    0.4100 A=    0.0000 R=    0.0000 C=    0.0000
 XYZ=    5.1355   -7.3422    2.2317 Q=    0.4100 A=    0.0000 R=    0.0000 C=    0.0000
 XYZ=   -6.4475   -3.7774    3.6149 Q=   -0.8200 A=    0.0000 R=    0.0000 C=    0.0000
 XYZ=   -6.9722   -3.7321    4.4649 Q=    0.4100 A=    0.0000 R=    0.0000 C=    0.0000
 XYZ=   -5.7488   -4.4887    3.6919 Q=    0.4100 A=    0.0000 R=    0.0000 C=    0.0000
 XYZ=   -0.2070    4.7341    7.6135 Q=   -0.8200 A=    0.0000 R=    0.0000 C=    0.0000
 XYZ=    0.0591    5.1657    8.4755 Q=    0.4100 A=    0.0000 R=    0.0000 C=    0.0000
 XYZ=    0.0598    3.7703    7.6271 Q=    0.4100 A=    0.0000 R=    0.0000 C=    0.0000
 XYZ=    0.3617   -5.1673   -7.7640 Q=   -0.8200 A=    0.0000 R=    0.0000 C=    0.0000
 XYZ=    0.0926   -6.1282   -7.8305 Q=    0.4100 A=    0.0000 R=    0.0000 C=    0.0000
 XYZ=    1.3573   -5.1041   -7.6940 Q=    0.4100 A=    0.0000 R=    0.0000 C=    0.0000
 XYZ=    8.2646   -1.4912    0.3734 Q=   -0.8200 A=    0.0000 R=    0.0000 C=    0.0000
 XYZ=    8.4827   -2.2903    0.9337 Q=    0.4100 A=    0.0000 R=    0.0000 C=    0.0000
 XYZ=    8.0285   -0.7221    0.9673 Q=    0.4100 A=    0.0000 R=    0.0000 C=    0.0000
 XYZ=    7.9281    2.9996   -0.7762 Q=   -0.8200 A=    0.0000 R=    0.0000 C=    0.0000
 XYZ=    7.2322    2.2836   -0.7213 Q=    0.4100 A=    0.0000 R=    0.0000 C=    0.0000
 XYZ=    8.3523    3.1217    0.1211 Q=    0.4100 A=    0.0000 R=    0.0000 C=    0.0000
 XYZ=   -7.0373   -3.9705    1.0167 Q=   -0.8200 A=    0.0000 R=    0.0000 C=    0.0000
 XYZ=   -6.7434   -4.7888    0.5227 Q=    0.4100 A=    0.0000 R=    0.0000 C=    0.0000
 XYZ=   -6.5852   -3.9390    1.9081 Q=    0.4100 A=    0.0000 R=    0.0000 C=    0.0000
 XYZ=    0.2053    9.7736   -0.7019 Q=   -0.8200 A=    0.0000 R=    0.0000 C=    0.0000
 XYZ=    0.2841    9.7518   -1.6986 Q=    0.4100 A=    0.0000 R=    0.0000 C=    0.0000
 XYZ=    0.8126    9.0857   -0.3044 Q=    0.4100 A=    0.0000 R=    0.0000 C=    0.0000
 XYZ=   -6.3140   -1.3997    6.5672 Q=   -0.8200 A=    0.0000 R=    0.0000 C=    0.0000
 XYZ=   -5.9952   -0.6604    5.9740 Q=    0.4100 A=    0.0000 R=    0.0000 C=    0.0000
 XYZ=   -5.6130   -1.6044    7.2504 Q=    0.4100 A=    0.0000 R=    0.0000 C=    0.0000
 XYZ=   -8.1669   -0.4028   -0.6341 Q=   -0.8200 A=    0.0000 R=    0.0000 C=    0.0000
 XYZ=   -8.2270   -1.1310   -1.3169 Q=    0.4100 A=    0.0000 R=    0.0000 C=    0.0000
 XYZ=   -7.7836   -0.7711    0.2129 Q=    0.4100 A=    0.0000 R=    0.0000 C=    0.0000
 XYZ=   -4.7185    8.9024   -3.4562 Q=   -0.8200 A=    0.0000 R=    0.0000 C=    0.0000
 XYZ=   -4.8038    8.9928   -2.4640 Q=    0.4100 A=    0.0000 R=    0.0000 C=    0.0000
 XYZ=   -4.6815    7.9334   -3.7006 Q=    0.4100 A=    0.0000 R=    0.0000 C=    0.0000
 XYZ=   -3.4477    2.4182   -9.7661 Q=   -0.8200 A=    0.0000 R=    0.0000 C=    0.0000
 XYZ=   -3.6666    2.4394   -8.7906 Q=    0.4100 A=    0.0000 R=    0.0000 C=    0.0000
 XYZ=   -3.4829    1.4745  -10.0951 Q=    0.4100 A=    0.0000 R=    0.0000 C=    0.0000
 XYZ=   -1.3485   -9.3972    3.5482 Q=   -0.8200 A=    0.0000 R=    0.0000 C=    0.0000
 XYZ=   -1.2712   -9.9175    2.6976 Q=    0.4100 A=    0.0000 R=    0.0000 C=    0.0000
 XYZ=   -1.5701   -8.4451    3.3375 Q=    0.4100 A=    0.0000 R=    0.0000 C=    0.0000
 XYZ=    0.7462    3.1109  -10.2261 Q=   -0.8200 A=    0.0000 R=    0.0000 C=    0.0000
 XYZ=    0.8606    3.3583   -9.2639 Q=    0.4100 A=    0.0000 R=    0.0000 C=    0.0000
 XYZ=    0.8567    3.9257  -10.7952 Q=    0.4100 A=    0.0000 R=    0.0000 C=    0.0000
 XYZ=    7.3588    4.0773    2.8788 Q=   -0.8200 A=    0.0000 R=    0.0000 C=    0.0000
 XYZ=    7.5656    3.8296    3.8253 Q=    0.4100 A=    0.0000 R=    0.0000 C=    0.0000
 XYZ=    6.6071    3.5100    2.5424 Q=    0.4100 A=    0.0000 R=    0.0000 C=    0.0000
 XYZ=   -7.6812    1.3829    5.1026 Q=   -0.8200 A=    0.0000 R=    0.0000 C=    0.0000
 XYZ=   -6.7662    1.0725    4.8446 Q=    0.4100 A=    0.0000 R=    0.0000 C=    0.0000
 XYZ=   -8.1732    0.6354    5.5490 Q=    0.4100 A=    0.0000 R=    0.0000 C=    0.0000
 XYZ=   -2.6754   -1.6518   -9.6541 Q=   -0.8200 A=    0.0000 R=    0.0000 C=    0.0000
 XYZ=   -2.5329   -2.4961  -10.1707 Q=    0.4100 A=    0.0000 R=    0.0000 C=    0.0000
 XYZ=   -2.9861   -1.8750   -8.7301 Q=    0.4100 A=    0.0000 R=    0.0000 C=    0.0000
 XYZ=   -0.6169   -4.6397    8.9515 Q=   -0.8200 A=    0.0000 R=    0.0000 C=    0.0000
 XYZ=   -0.1891   -4.3612    8.0916 Q=    0.4100 A=    0.0000 R=    0.0000 C=    0.0000
 XYZ=   -0.0908   -5.3860    9.3592 Q=    0.4100 A=    0.0000 R=    0.0000 C=    0.0000
 XYZ=   -6.6195    4.9422    3.7990 Q=   -0.8200 A=    0.0000 R=    0.0000 C=    0.0000
 XYZ=   -7.1434    5.7702    3.5990 Q=    0.4100 A=    0.0000 R=    0.0000 C=    0.0000
 XYZ=   -7.1591    4.3406    4.3881 Q=    0.4100 A=    0.0000 R=    0.0000 C=    0.0000
 XYZ=    6.0329    6.1159    2.8219 Q=   -0.8200 A=    0.0000 R=    0.0000 C=    0.0000
 XYZ=    5.1695    5.7888    3.2061 Q=    0.4100 A=    0.0000 R=    0.0000 C=    0.0000
 XYZ=    6.6157    5.3344    2.5991 Q=    0.4100 A=    0.0000 R=    0.0000 C=    0.0000
 XYZ=    3.1507   -2.2315  -10.0256 Q=   -0.8200 A=    0.0000 R=    0.0000 C=    0.0000
 XYZ=    3.0856   -2.0749   -9.0400 Q=    0.4100 A=    0.0000 R=    0.0000 C=    0.0000
 XYZ=    4.0101   -2.6989  -10.2327 Q=    0.4100 A=    0.0000 R=    0.0000 C=    0.0000
 XYZ=   -0.9352    8.3403    5.5819 Q=   -0.8200 A=    0.0000 R=    0.0000 C=    0.0000
 XYZ=   -0.4109    7.7648    4.9542 Q=    0.4100 A=    0.0000 R=    0.0000 C=    0.0000
 XYZ=   -1.7005    7.8155    5.9547 Q=    0.4100 A=    0.0000 R=    0.0000 C=    0.0000
 XYZ=    5.8667    3.2071   -6.2291 Q=   -0.8200 A=    0.0000 R=    0.0000 C=    0.0000
 XYZ=    6.4018    3.8236   -6.8067 Q=    0.4100 A=    0.0000 R=    0.0000 C=    0.0000
 XYZ=    6.4781    2.7198   -5.6056 Q=    0.4100 A=    0.0000 R=    0.0000 C=    0.0000
 XYZ=   -3.4897    0.2107    8.8407 Q=   -0.8200 A=    0.0000 R=    0.0000 C=    0.0000
 XYZ=   -2.9325   -0.6084    8.7040 Q=    0.4100 A=    0.0000 R=    0.0000 C=    0.0000
 XYZ=   -4.3279   -0.0341    9.3281 Q=    0.4100 A=    0.0000 R=    0.0000 C=    0.0000
 XYZ=    6.8280    4.6948   -1.7794 Q=   -0.8200 A=    0.0000 R=    0.0000 C=    0.0000
 XYZ=    7.3271    3.9944   -1.2693 Q=    0.4100 A=    0.0000 R=    0.0000 C=    0.0000
 XYZ=    6.9435    5.5805   -1.3297 Q=    0.4100 A=    0.0000 R=    0.0000 C=    0.0000
 XYZ=   -5.3950    6.1037    5.5773 Q=   -0.8200 A=    0.0000 R=    0.0000 C=    0.0000
 XYZ=   -6.2122    6.5761    5.9073 Q=    0.4100 A=    0.0000 R=    0.0000 C=    0.0000
 XYZ=   -5.6462    5.4818    4.8356 Q=    0.4100 A=    0.0000 R=    0.0000 C=    0.0000
 XYZ=   -2.4938   -9.0979    0.1570 Q=   -0.8200 A=    0.0000 R=    0.0000 C=    0.0000
 XYZ=   -1.7184   -9.6524    0.4593 Q=    0.4100 A=    0.0000 R=    0.0000 C=    0.0000
 XYZ=   -3.0350   -9.6152   -0.5060 Q=    0.4100 A=    0.0000 R=    0.0000 C=    0.0000
 XYZ=   -4.8026    8.9393   -1.0727 Q=   -0.8200 A=    0.0000 R=    0.0000 C=    0.0000
 XYZ=   -5.2880    9.6426   -0.5533 Q=    0.4100 A=    0.0000 R=    0.0000 C=    0.0000
 XYZ=   -3.8295    8.9681   -0.8439 Q=    0.4100 A=    0.0000 R=    0.0000 C=    0.0000
 XYZ=    9.0672   -1.2206   -3.2136 Q=   -0.8200 A=    0.0000 R=    0.0000 C=    0.0000
 XYZ=    8.2762   -1.0482   -2.6266 Q=    0.4100 A=    0.0000 R=    0.0000 C=    0.0000
 XYZ=    9.8121   -1.6014   -2.6657 Q=    0.4100 A=    0.0000 R=    0.0000 C=    0.0000
 XYZ=    1.4649    0.8964   -9.8621 Q=   -0.8200 A=    0.0000 R=    0.0000 C=    0.0000
 XYZ=    1.2643    1.8408  -10.1229 Q=    0.4100 A=    0.0000 R=    0.0000 C=    0.0000
 XYZ=    0.6137    0.3730   -9.8245 Q=    0.4100 A=    0.0000 R=    0.0000 C=    0.0000
 XYZ=   -8.6959    1.1696    3.0578 Q=   -0.8200 A=    0.0000 R=    0.0000 C=    0.0000
 XYZ=   -8.2920    1.8025    2.3972 Q=    0.4100 A=    0.0000 R=    0.0000 C=    0.0000
 XYZ=   -8.1874    1.2159    3.9176 Q=    0.4100 A=    0.0000 R=    0.0000 C=    0.0000
 XYZ=    8.9899   -3.6610    1.3475 Q=   -0.8200 A=    0.0000 R=    0.0000 C=    0.0000
 XYZ=    8.2049   -4.2362    1.5782 Q=    0.4100 A=    0.0000 R=    0.0000 C=    0.0000
 XYZ=    9.7745   -4.2406    1.1274 Q=    0.4100 A=    0.0000 R=    0.0000 C=    0.0000
 XYZ=   -4.6879   -2.8851    7.9289 Q=   -0.8200 A=    0.0000 R=    0.0000 C=    0.0000
 XYZ=   -3.9822   -2.2182    8.1682 Q=    0.4100 A=    0.0000 R=    0.0000 C=    0.0000
 XYZ=   -4.8585   -3.4849    8.7107 Q=    0.4100 A=    0.0000 R=    0.0000 C=    0.0000
 XYZ=    4.6444    1.6440    7.7400 Q=   -0.8200 A=    0.0000 R=    0.0000 C=    0.0000
 XYZ=    5.4069    2.1141    7.2955 Q=    0.4100 A=    0.0000 R=    0.0000 C=    0.0000
 XYZ=    4.1352    2.2941    8.3040 Q=    0.4100 A=    0.0000 R=    0.0000 C=    0.0000
 XYZ=   -1.1056    5.7125  -10.0501 Q=   -0.8200 A=    0.0000 R=    0.0000 C=    0.0000
 XYZ=   -1.5579    5.0513  -10.6487 Q=    0.4100 A=    0.0000 R=    0.0000 C=    0.0000
 XYZ=   -0.9481    5.2975   -9.1540 Q=    0.4100 A=    0.0000 R=    0.0000 C=    0.0000
 XYZ=   -2.2327    2.2206    9.1786 Q=   -0.8200 A=    0.0000 R=    0.0000 C=    0.0000
 XYZ=   -2.6609    1.3637    8.8915 Q=    0.4100 A=    0.0000 R=    0.0000 C=    0.0000
 XYZ=   -2.1491    2.2339   10.1750 Q=    0.4100 A=    0.0000 R=    0.0000 C=    0.0000
 XYZ=   -0.6068   -7.9030    5.4232 Q=   -0.8200 A=    0.0000 R=    0.0000 C=    0.0000
 XYZ=   -1.4865   -7.7379    5.8693 Q=    0.4100 A=    0.0000 R=    0.0000 C=    0.0000
 XYZ=   -0.7074   -8.6339    4.7481 Q=    0.4100 A=    0.0000 R=    0.0000 C=    0.0000
 XYZ=    7.4594    2.2248   -4.7835 Q=   -0.8200 A=    0.0000 R=    0.0000 C=    0.0000
 XYZ=    7.5004    3.1677   -4.4529 Q=    0.4100 A=    0.0000 R=    0.0000 C=    0.0000
 XYZ=    8.2952    1.7427   -4.5204 Q=    0.4100 A=    0.0000 R=    0.0000 C=    0.0000
 XYZ=   -4.2101   -8.5726    1.6770 Q=   -0.8200 A=    0.0000 R=    0.0000 C=    0.0000
 XYZ=   -5.0321   -8.4023    1.1334 Q=    0.4100 A=    0.0000 R=    0.0000 C=    0.0000
 XYZ=   -3.4473   -8.7907    1.0682 Q=    0.4100 A=    0.0000 R=    0.0000 C=    0.0000
 XYZ=   -2.6516    4.1104    8.0153 Q=   -0.8200 A=    0.0000 R=    0.0000 C=    0.0000
 XYZ=   -1.7905    4.5086    7.6987 Q=    0.4100 A=    0.0000 R=    0.0000 C=    0.0000
 XYZ=   -2.4849    3.1863    8.3592 Q=    0.4100 A=    0.0000 R=    0.0000 C=    0.0000
 XYZ=    8.0852   -2.0712   -5.1982 Q=   -0.8200 A=    0.0000 R=    0.0000 C=    0.0000
 XYZ=    8.6358   -1.8107   -4.4051 Q=    0.4100 A=    0.0000 R=    0.0000 C=    0.0000
 XYZ=    7.5438   -2.8821   -4.9762 Q=    0.4100 A=    0.0000 R=    0.0000 C=    0.0000
 XYZ=   -6.4929    7.5410   -0.4702 Q=   -0.8200 A=    0.0000 R=    0.0000 C=    0.0000
 XYZ=   -5.7116    8.0797   -0.7855 Q=    0.4100 A=    0.0000 R=    0.0000 C=    0.0000
 XYZ=   -7.1073    8.1243    0.0611 Q=    0.4100 A=    0.0000 R=    0.0000 C=    0.0000
 XYZ=   -8.7145    4.8266   -1.3753 Q=   -0.8200 A=    0.0000 R=    0.0000 C=    0.0000
 XYZ=   -8.4812    5.6735   -1.8533 Q=    0.4100 A=    0.0000 R=    0.0000 C=    0.0000
 XYZ=   -8.4008    4.0435   -1.9124 Q=    0.4100 A=    0.0000 R=    0.0000 C=    0.0000
 XYZ=   -7.4463    3.5238   -6.7217 Q=   -0.8200 A=    0.0000 R=    0.0000 C=    0.0000
 XYZ=   -7.1937    4.1365   -7.4706 Q=    0.4100 A=    0.0000 R=    0.0000 C=    0.0000
 XYZ=   -6.9653    2.6534   -6.8266 Q=    0.4100 A=    0.0000 R=    0.0000 C=    0.0000
 XYZ=   -4.3215    7.9743    4.1808 Q=   -0.8200 A=    0.0000 R=    0.0000 C=    0.0000
 XYZ=   -4.9215    7.1889    4.3330 Q=    0.4100 A=    0.0000 R=    0.0000 C=    0.0000
 XYZ=   -4.7480    8.7972    4.5563 Q=    0.4100 A=    0.0000 R=    0.0000 C=    0.0000
 XYZ=   -0.4496   -0.7214  -10.2194 Q=   -0.8200 A=    0.0000 R=    0.0000 C=    0.0000
 XYZ=    0.1767   -1.4762  -10.4147 Q=    0.4100 A=    0.0000 R=    0.0000 C=    0.0000
 XYZ=   -1.3190   -1.0872   -9.8869 Q=    0.4100 A=    0.0000 R=    0.0000 C=    0.0000
 XYZ=   -3.0649    9.2247    2.6197 Q=   -0.8200 A=    0.0000 R=    0.0000 C=    0.0000
 XYZ=   -3.5129    8.6422    3.2980 Q=    0.4100 A=    0.0000 R=    0.0000 C=    0.0000
 XYZ=   -3.6277   10.0341    2.4518 Q=    0.4100 A=    0.0000 R=    0.0000 C=    0.0000
 XYZ=   -6.4015   -6.0029   -0.3802 Q=   -0.8200 A=    0.0000 R=    0.0000 C=    0.0000
 XYZ=   -6.6612   -5.8595   -1.3352 Q=    0.4100 A=    0.0000 R=    0.0000 C=    0.0000
 XYZ=   -6.4226   -6.9808   -0.1723 Q=    0.4100 A=    0.0000 R=    0.0000 C=    0.0000
 XYZ=    5.2963    7.4398    1.1218 Q=   -0.8200 A=    0.0000 R=    0.0000 C=    0.0000
 XYZ=    5.6933    8.3545    1.1973 Q=    0.4100 A=    0.0000 R=    0.0000 C=    0.0000
 XYZ=    5.5690    6.8918    1.9126 Q=    0.4100 A=    0.0000 R=    0.0000 C=    0.0000
 XYZ=   -0.1763   -4.6624  -10.0725 Q=   -0.8200 A=    0.0000 R=    0.0000 C=    0.0000
 XYZ=    0.2257   -3.8100  -10.4070 Q=    0.4100 A=    0.0000 R=    0.0000 C=    0.0000
 XYZ=   -0.0705   -4.7136   -9.0794 Q=    0.4100 A=    0.0000 R=    0.0000 C=    0.0000
 XYZ=    7.6830    4.3195   -3.8509 Q=   -0.8200 A=    0.0000 R=    0.0000 C=    0.0000
 XYZ=    7.3051    4.4633   -2.9363 Q=    0.4100 A=    0.0000 R=    0.0000 C=    0.0000
 XYZ=    8.6809    4.3697   -3.8108 Q=    0.4100 A=    0.0000 R=    0.0000 C=    0.0000
 XYZ=    8.0663    2.7228    5.1004 Q=   -0.8200 A=    0.0000 R=    0.0000 C=    0.0000
 XYZ=    7.3120    2.2190    4.6794 Q=    0.4100 A=    0.0000 R=    0.0000 C=    0.0000
 XYZ=    8.8062    2.0887    5.3251 Q=    0.4100 A=    0.0000 R=    0.0000 C=    0.0000
 XYZ=   -2.9013    7.3414    6.4479 Q=   -0.8200 A=    0.0000 R=    0.0000 C=    0.0000
 XYZ=   -3.6027    7.1695    5.7561 Q=    0.4100 A=    0.0000 R=    0.0000 C=    0.0000
 XYZ=   -3.2601    7.1077    7.3516 Q=    0.4100 A=    0.0000 R=    0.0000 C=    0.0000
 XYZ=   -9.0312   -1.1237    2.7777 Q=   -0.8200 A=    0.0000 R=    0.0000 C=    0.0000
 XYZ=   -8.3303   -1.5968    2.2440 Q=    0.4100 A=    0.0000 R=    0.0000 C=    0.0000
 XYZ=   -8.8286   -0.1447    2.8004 Q=    0.4100 A=    0.0000 R=    0.0000 C=    0.0000
 XYZ=   -9.2300    4.6011    2.2033 Q=   -0.8200 A=    0.0000 R=    0.0000 C=    0.0000
 XYZ=   -8.5110    3.9114    2.2887 Q=    0.4100 A=    0.0000 R=    0.0000 C=    0.0000
 XYZ=  -10.0544    4.2829    2.6714 Q=    0.4100 A=    0.0000 R=    0.0000 C=    0.0000
 XYZ=    9.4870    1.1284    1.3294 Q=   -0.8200 A=    0.0000 R=    0.0000 C=    0.0000
 XYZ=    8.6487    0.6959    1.6616 Q=    0.4100 A=    0.0000 R=    0.0000 C=    0.0000
 XYZ=    9.3780    2.1223    1.3453 Q=    0.4100 A=    0.0000 R=    0.0000 C=    0.0000
 XYZ=   -3.4402    9.3595   -5.6824 Q=   -0.8200 A=    0.0000 R=    0.0000 C=    0.0000
 XYZ=   -3.6469    9.1526   -4.7261 Q=    0.4100 A=    0.0000 R=    0.0000 C=    0.0000
 XYZ=   -3.7893    8.6257   -6.2652 Q=    0.4100 A=    0.0000 R=    0.0000 C=    0.0000
 XYZ=   -1.0941    9.5712    3.7484 Q=   -0.8200 A=    0.0000 R=    0.0000 C=    0.0000
 XYZ=   -1.9469    9.4998    3.2311 Q=    0.4100 A=    0.0000 R=    0.0000 C=    0.0000
 XYZ=   -1.1601    9.0166    4.5780 Q=    0.4100 A=    0.0000 R=    0.0000 C=    0.0000
 XYZ=   -7.0990   -5.6106   -2.5348 Q=   -0.8200 A=    0.0000 R=    0.0000 C=    0.0000
 XYZ=   -8.0953   -5.5672   -2.4605 Q=    0.4100 A=    0.0000 R=    0.0000 C=    0.0000
 XYZ=   -6.7919   -4.9960   -3.2615 Q=    0.4100 A=    0.0000 R=    0.0000 C=    0.0000
 XYZ=    7.1012   -8.4573    0.3779 Q=   -0.8200 A=    0.0000 R=    0.0000 C=    0.0000
 XYZ=    6.6088   -8.0224    1.1319 Q=    0.4100 A=    0.0000 R=    0.0000 C=    0.0000
 XYZ=    7.7274   -9.1465    0.7424 Q=    0.4100 A=    0.0000 R=    0.0000 C=    0.0000
 XYZ=   -3.4646   -6.8605   -6.3294 Q=   -0.8200 A=    0.0000 R=    0.0000 C=    0.0000
 XYZ=   -3.6950   -7.4185   -7.1266 Q=    0.4100 A=    0.0000 R=    0.0000 C=    0.0000
 XYZ=   -4.2927   -6.6789   -5.7991 Q=    0.4100 A=    0.0000 R=    0.0000 C=    0.0000
 XYZ=    6.3117   -2.2362   -8.9421 Q=   -0.8200 A=    0.0000 R=    0.0000 C=    0.0000
 XYZ=    5.9737   -1.4809   -8.3806 Q=    0.4100 A=    0.0000 R=    0.0000 C=    0.0000
 XYZ=    6.2269   -3.0933   -8.4339 Q=    0.4100 A=    0.0000 R=    0.0000 C=    0.0000
 XYZ=    1.5088    2.9977   10.2322 Q=   -0.8200 A=    0.0000 R=    0.0000 C=    0.0000
 XYZ=    2.4522    3.1102    9.9202 Q=    0.4100 A=    0.0000 R=    0.0000 C=    0.0000
 XYZ=    0.9695    2.5606    9.5124 Q=    0.4100 A=    0.0000 R=    0.0000 C=    0.0000
 XYZ=    6.1093   -0.0220    8.5654 Q=   -0.8200 A=    0.0000 R=    0.0000 C=    0.0000
 XYZ=    5.4963    0.6568    8.1608 Q=    0.4100 A=    0.0000 R=    0.0000 C=    0.0000
 XYZ=    6.8855    0.4423    8.9919 Q=    0.4100 A=    0.0000 R=    0.0000 C=    0.0000
 XYZ=   -7.5965   -3.4184    5.7029 Q=   -0.8200 A=    0.0000 R=    0.0000 C=    0.0000
 XYZ=   -8.3461   -2.8457    5.3708 Q=    0.4100 A=    0.0000 R=    0.0000 C=    0.0000
 XYZ=   -6.9136   -2.8445    6.1547 Q=    0.4100 A=    0.0000 R=    0.0000 C=    0.0000
 XYZ=   -2.6888   -5.7086    8.3409 Q=   -0.8200 A=    0.0000 R=    0.0000 C=    0.0000
 XYZ=   -1.9271   -5.1049    8.5762 Q=    0.4100 A=    0.0000 R=    0.0000 C=    0.0000
 XYZ=   -3.5258   -5.3732    8.7734 Q=    0.4100 A=    0.0000 R=    0.0000 C=    0.0000
 XYZ=    7.0774    6.4885   -0.3930 Q=   -0.8200 A=    0.0000 R=    0.0000 C=    0.0000
 XYZ=    6.3666    7.0468    0.0350 Q=    0.4100 A=    0.0000 R=    0.0000 C=    0.0000
 XYZ=    7.5821    5.9925    0.3136 Q=    0.4100 A=    0.0000 R=    0.0000 C=    0.0000
 XYZ=    0.8782   -2.6178  -10.7034 Q=   -0.8200 A=    0.0000 R=    0.0000 C=    0.0000
 XYZ=    1.8033   -2.3871  -10.4017 Q=    0.4100 A=    0.0000 R=    0.0000 C=    0.0000
 XYZ=    0.7901   -2.4298  -11.6817 Q=    0.4100 A=    0.0000 R=    0.0000 C=    0.0000
 XYZ=    2.2577   -7.7620   -7.7455 Q=   -0.8200 A=    0.0000 R=    0.0000 C=    0.0000
 XYZ=    2.6066   -6.8293   -7.6536 Q=    0.4100 A=    0.0000 R=    0.0000 C=    0.0000
 XYZ=    2.8894   -8.3007   -8.3029 Q=    0.4100 A=    0.0000 R=    0.0000 C=    0.0000
 XYZ=   -4.8562    5.3187    7.8099 Q=   -0.8200 A=    0.0000 R=    0.0000 C=    0.0000
 XYZ=   -5.2795    5.6862    6.9817 Q=    0.4100 A=    0.0000 R=    0.0000 C=    0.0000
 XYZ=   -4.0245    4.8199    7.5659 Q=    0.4100 A=    0.0000 R=    0.0000 C=    0.0000
 XYZ=    6.1205   -4.2417   -7.4938 Q=   -0.8200 A=    0.0000 R=    0.0000 C=    0.0000
 XYZ=    6.9364   -4.6738   -7.1094 Q=    0.4100 A=    0.0000 R=    0.0000 C=    0.0000
 XYZ=    5.7038   -4.8546   -8.1653 Q=    0.4100 A=    0.0000 R=    0.0000 C=    0.0000
 XYZ=   -2.8364   -7.2662    6.4885 Q=   -0.8200 A=    0.0000 R=    0.0000 C=    0.0000
 XYZ=   -2.6211   -6.5992    7.2018 Q=    0.4100 A=    0.0000 R=    0.0000 C=    0.0000
 XYZ=   -3.6871   -7.7384    6.7195 Q=    0.4100 A=    0.0000 R=    0.0000 C=    0.0000
 XYZ=   -6.4925   -6.9563    5.1057 Q=   -0.8200 A=    0.0000 R=    0.0000 C=    0.0000
 XYZ=   -5.8617   -6.2526    4.7788 Q=    0.4100 A=    0.0000 R=    0.0000 C=    0.0000
 XYZ=   -7.3147   -6.5220    5.4736 Q=    0.4100 A=    0.0000 R=    0.0000 C=    0.0000
 XYZ=   -1.9036   -8.7220   -6.0908 Q=   -0.8200 A=    0.0000 R=    0.0000 C=    0.0000
 XYZ=   -2.5236   -7.9373   -6.0856 Q=    0.4100 A=    0.0000 R=    0.0000 C=    0.0000
 XYZ=   -2.1646   -9.3480   -6.8256 Q=    0.4100 A=    0.0000 R=    0.0000 C=    0.0000
 XYZ=  -10.4871    0.1605   -0.7573 Q=   -0.8200 A=    0.0000 R=    0.0000 C=    0.0000
 XYZ=  -10.7452    1.0572   -1.1170 Q=    0.4100 A=    0.0000 R=    0.0000 C=    0.0000
 XYZ=   -9.4945    0.1209   -0.6417 Q=    0.4100 A=    0.0000 R=    0.0000 C=    0.0000
 XYZ=   -7.7757    3.6242    5.7209 Q=   -0.8200 A=    0.0000 R=    0.0000 C=    0.0000
 XYZ=   -7.8719    3.6745    6.7150 Q=    0.4100 A=    0.0000 R=    0.0000 C=    0.0000
 XYZ=   -7.7863    2.6666    5.4331 Q=    0.4100 A=    0.0000 R=    0.0000 C=    0.0000
 XYZ=    6.7400    5.9724   -5.2462 Q=   -0.8200 A=    0.0000 R=    0.0000 C=    0.0000
 XYZ=    7.2874    5.4421   -4.5987 Q=    0.4100 A=    0.0000 R=    0.0000 C=    0.0000
 XYZ=    6.9442    5.6734   -6.1783 Q=    0.4100 A=    0.0000 R=    0.0000 C=    0.0000
 XYZ=   -3.7285    0.1994  -10.5388 Q=   -0.8200 A=    0.0000 R=    0.0000 C=    0.0000
 XYZ=   -3.3557   -0.6401  -10.1436 Q=    0.4100 A=    0.0000 R=    0.0000 C=    0.0000
 XYZ=   -4.6094    0.0026  -10.9693 Q=    0.4100 A=    0.0000 R=    0.0000 C=    0.0000
 XYZ=   10.5024   -1.9899   -1.0927 Q=   -0.8200 A=    0.0000 R=    0.0000 C=    0.0000
 XYZ=   11.2605   -1.6332   -0.5466 Q=    0.4100 A=    0.0000 R=    0.0000 C=    0.0000
 XYZ=    9.7186   -2.1688   -0.4980 Q=    0.4100 A=    0.0000 R=    0.0000 C=    0.0000
 XYZ=   -5.7063   -6.5465   -5.3183 Q=   -0.8200 A=    0.0000 R=    0.0000 C=    0.0000
 XYZ=   -6.2746   -5.7236   -5.3154 Q=    0.4100 A=    0.0000 R=    0.0000 C=    0.0000
 XYZ=   -5.9952   -7.1536   -4.5781 Q=    0.4100 A=    0.0000 R=    0.0000 C=    0.0000
 XYZ=   -0.1239   -7.8918   -7.6163 Q=   -0.8200 A=    0.0000 R=    0.0000 C=    0.0000
 XYZ=   -0.5940   -8.1520   -6.7729 Q=    0.4100 A=    0.0000 R=    0.0000 C=    0.0000
 XYZ=    0.8650   -7.9353   -7.4736 Q=    0.4100 A=    0.0000 R=    0.0000 C=    0.0000
 XYZ=    0.1122   11.7058    0.5003 Q=   -0.8200 A=    0.0000 R=    0.0000 C=    0.0000
 XYZ=    1.0370   12.0603    0.3619 Q=    0.4100 A=    0.0000 R=    0.0000 C=    0.0000
 XYZ=    0.0274   10.8136    0.0567 Q=    0.4100 A=    0.0000 R=    0.0000 C=    0.0000
 XYZ=   -1.2530   -3.0805   10.4083 Q=   -0.8200 A=    0.0000 R=    0.0000 C=    0.0000
 XYZ=   -0.7538   -3.7658    9.8781 Q=    0.4100 A=    0.0000 R=    0.0000 C=    0.0000
 XYZ=   -2.0737   -3.4956   10.8007 Q=    0.4100 A=    0.0000 R=    0.0000 C=    0.0000
 XYZ=    5.0108    4.8424    7.0722 Q=   -0.8200 A=    0.0000 R=    0.0000 C=    0.0000
 XYZ=    5.5561    5.6665    6.9192 Q=    0.4100 A=    0.0000 R=    0.0000 C=    0.0000
 XYZ=    5.6187    4.0553    7.1770 Q=    0.4100 A=    0.0000 R=    0.0000 C=    0.0000
 XYZ=   -8.6257   -0.4770    6.2969 Q=   -0.8200 A=    0.0000 R=    0.0000 C=    0.0000
 XYZ=   -9.1648   -1.1183    5.7508 Q=    0.4100 A=    0.0000 R=    0.0000 C=    0.0000
 XYZ=   -7.6874   -0.8139    6.3765 Q=    0.4100 A=    0.0000 R=    0.0000 C=    0.0000
 XYZ=    9.5131    1.2020   -4.0535 Q=   -0.8200 A=    0.0000 R=    0.0000 C=    0.0000
 XYZ=    9.7418    1.6895   -3.2109 Q=    0.4100 A=    0.0000 R=    0.0000 C=    0.0000
 XYZ=    9.3269    0.2423   -3.8432 Q=    0.4100 A=    0.0000 R=    0.0000 C=    0.0000
 XYZ=    2.5138   -0.4967  -11.4933 Q=   -0.8200 A=    0.0000 R=    0.0000 C=    0.0000
 XYZ=    2.1546    0.2242  -10.9005 Q=    0.4100 A=    0.0000 R=    0.0000 C=    0.0000
 XYZ=    2.8901   -1.2335  -10.9315 Q=    0.4100 A=    0.0000 R=    0.0000 C=    0.0000
 XYZ=    7.5037   -6.1744   -4.2408 Q=   -0.8200 A=    0.0000 R=    0.0000 C=    0.0000
 XYZ=    7.4814   -5.8872   -5.1985 Q=    0.4100 A=    0.0000 R=    0.0000 C=    0.0000
 XYZ=    8.3153   -6.7360   -4.0801 Q=    0.4100 A=    0.0000 R=    0.0000 C=    0.0000
 XYZ=    6.6310    2.8537    7.0493 Q=   -0.8200 A=    0.0000 R=    0.0000 C=    0.0000
 XYZ=    7.2644    2.8217    6.2760 Q=    0.4100 A=    0.0000 R=    0.0000 C=    0.0000
 XYZ=    7.1401    3.0400    7.8896 Q=    0.4100 A=    0.0000 R=    0.0000 C=    0.0000
 XYZ=    8.8842    3.4087    1.2856 Q=   -0.8200 A=    0.0000 R=    0.0000 C=    0.0000
 XYZ=    8.2872    3.7702    2.0018 Q=    0.4100 A=    0.0000 R=    0.0000 C=    0.0000
 XYZ=    9.8384    3.5876    1.5254 Q=    0.4100 A=    0.0000 R=    0.0000 C=    0.0000
 XYZ=   -1.1979  -10.7767    1.6948 Q=   -0.8200 A=    0.0000 R=    0.0000 C=    0.0000
 XYZ=   -0.5444  -11.4705    1.9973 Q=    0.4100 A=    0.0000 R=    0.0000 C=    0.0000
 XYZ=   -2.0264  -11.2238    1.3575 Q=    0.4100 A=    0.0000 R=    0.0000 C=    0.0000
 XYZ=   -1.7959  -10.4475   -4.3886 Q=   -0.8200 A=    0.0000 R=    0.0000 C=    0.0000
 XYZ=   -1.3598  -10.0554   -3.5785 Q=    0.4100 A=    0.0000 R=    0.0000 C=    0.0000
 XYZ=   -1.7430   -9.7948   -5.1444 Q=    0.4100 A=    0.0000 R=    0.0000 C=    0.0000
 XYZ=   -3.8023   -9.9473    3.5740 Q=   -0.8200 A=    0.0000 R=    0.0000 C=    0.0000
 XYZ=   -2.9004   -9.5910    3.8182 Q=    0.4100 A=    0.0000 R=    0.0000 C=    0.0000
 XYZ=   -4.1765   -9.4149    2.8147 Q=    0.4100 A=    0.0000 R=    0.0000 C=    0.0000
 XYZ=    9.2363   -5.3020   -1.0792 Q=   -0.8200 A=    0.0000 R=    0.0000 C=    0.0000
 XYZ=    9.4778   -5.1191   -2.0323 Q=    0.4100 A=    0.0000 R=    0.0000 C=    0.0000
 XYZ=    9.0403   -6.2761   -0.9661 Q=    0.4100 A=    0.0000 R=    0.0000 C=    0.0000
 XYZ=   -3.4084   -6.1543   -9.6792 Q=   -0.8200 A=    0.0000 R=    0.0000 C=    0.0000
 XYZ=   -3.9766   -5.5222  -10.2061 Q=    0.4100 A=    0.0000 R=    0.0000 C=    0.0000
 XYZ=   -2.9848   -5.6651   -8.9167 Q=    0.4100 A=    0.0000 R=    0.0000 C=    0.0000
 XYZ=    9.8882    2.4708   -2.1954 Q=   -0.8200 A=    0.0000 R=    0.0000 C=    0.0000
 XYZ=    9.1160    2.7261   -1.6136 Q=    0.4100 A=    0.0000 R=    0.0000 C=    0.0000
 XYZ=   10.5108    1.8796   -1.6826 Q=    0.4100 A=    0.0000 R=    0.0000 C=    0.0000
 XYZ=   -2.3279    4.0731  -11.4448 Q=   -0.8200 A=    0.0000 R=    0.0000 C=    0.0000
 XYZ=   -2.7720    3.4890  -10.7654 Q=    0.4100 A=    0.0000 R=    0.0000 C=    0.0000
 XYZ=   -1.7837    3.5084  -12.0652 Q=    0.4100 A=    0.0000 R=    0.0000 C=    0.0000
 XYZ=   -6.0554   -8.3638    0.2597 Q=   -0.8200 A=    0.0000 R=    0.0000 C=    0.0000
 XYZ=   -6.9324   -8.3561    0.7402 Q=    0.4100 A=    0.0000 R=    0.0000 C=    0.0000
 XYZ=   -6.1172   -8.9649   -0.5371 Q=    0.4100 A=    0.0000 R=    0.0000 C=    0.0000
 XYZ=   -1.7198    0.3890  -11.8210 Q=   -0.8200 A=    0.0000 R=    0.0000 C=    0.0000
 XYZ=   -1.0610    0.0460  -11.1514 Q=    0.4100 A=    0.0000 R=    0.0000 C=    0.0000
 XYZ=   -2.6408    0.3481  -11.4334 Q=    0.4100 A=    0.0000 R=    0.0000 C=    0.0000
 XYZ=    3.7420    3.1516    9.2958 Q=   -0.8200 A=    0.0000 R=    0.0000 C=    0.0000
 XYZ=    4.2903    2.9690   10.1120 Q=    0.4100 A=    0.0000 R=    0.0000 C=    0.0000
 XYZ=    3.7724    4.1289    9.0857 Q=    0.4100 A=    0.0000 R=    0.0000 C=    0.0000
 XYZ=   -0.6653    2.4759  -12.0649 Q=   -0.8200 A=    0.0000 R=    0.0000 C=    0.0000
 XYZ=   -0.1138    2.4854  -11.2307 Q=    0.4100 A=    0.0000 R=    0.0000 C=    0.0000
 XYZ=   -1.0429    1.5605  -12.2044 Q=    0.4100 A=    0.0000 R=    0.0000 C=    0.0000
 XYZ=   -7.2858   -4.8860   -5.2724 Q=   -0.8200 A=    0.0000 R=    0.0000 C=    0.0000
 XYZ=   -7.2717   -4.2919   -6.0766 Q=    0.4100 A=    0.0000 R=    0.0000 C=    0.0000
 XYZ=   -8.1938   -4.8591   -4.8541 Q=    0.4100 A=    0.0000 R=    0.0000 C=    0.0000
 XYZ=    4.5844   -1.3223    9.6655 Q=   -0.8200 A=    0.0000 R=    0.0000 C=    0.0000
 XYZ=    5.3206   -0.8001    9.2350 Q=    0.4100 A=    0.0000 R=    0.0000 C=    0.0000
 XYZ=    4.9151   -2.2379    9.8944 Q=    0.4100 A=    0.0000 R=    0.0000 C=    0.0000
 XYZ=   -6.5418    4.6102   -8.5915 Q=   -0.8200 A=    0.0000 R=    0.0000 C=    0.0000
 XYZ=   -7.0406    5.3572   -9.0312 Q=    0.4100 A=    0.0000 R=    0.0000 C=    0.0000
 XYZ=   -6.0799    4.0621   -9.2889 Q=    0.4100 A=    0.0000 R=    0.0000 C=    0.0000
 XYZ=  -10.3783    4.0326    0.0737 Q=   -0.8200 A=    0.0000 R=    0.0000 C=    0.0000
 XYZ=   -9.7069    4.3874   -0.5769 Q=    0.4100 A=    0.0000 R=    0.0000 C=    0.0000
 XYZ=  -10.0889    4.2534    1.0051 Q=    0.4100 A=    0.0000 R=    0.0000 C=    0.0000
 XYZ=   -2.8694    7.4159  -10.0975 Q=   -0.8200 A=    0.0000 R=    0.0000 C=    0.0000
 XYZ=   -2.5741    8.3712  -10.0805 Q=    0.4100 A=    0.0000 R=    0.0000 C=    0.0000
 XYZ=   -2.1212    6.8303   -9.7854 Q=    0.4100 A=    0.0000 R=    0.0000 C=    0.0000
 XYZ=   -8.4283    6.5846    3.3980 Q=   -0.8200 A=    0.0000 R=    0.0000 C=    0.0000
 XYZ=   -8.7624    6.5088    4.3375 Q=    0.4100 A=    0.0000 R=    0.0000 C=    0.0000
 XYZ=   -8.7717    5.8154    2.8591 Q=    0.4100 A=    0.0000 R=    0.0000 C=    0.0000
 XYZ=    8.9509   -7.5169   -0.8816 Q=   -0.8200 A=    0.0000 R=    0.0000 C=    0.0000
 XYZ=    8.1026   -7.7963   -0.4319 Q=    0.4100 A=    0.0000 R=    0.0000 C=    0.0000
 XYZ=    9.6999   -8.1043   -0.5747 Q=    0.4100 A=    0.0000 R=    0.0000 C=    0.0000
 XYZ=   -0.0618   11.4733    2.8768 Q=   -0.8200 A=    0.0000 R=    0.0000 C=    0.0000
 XYZ=   -0.4868   10.6675    3.2893 Q=    0.4100 A=    0.0000 R=    0.0000 C=    0.0000
 XYZ=   -0.1813   11.4419    1.8845 Q=    0.4100 A=    0.0000 R=    0.0000 C=    0.0000
 XYZ=   -6.6490   -7.7785   -3.1446 Q=   -0.8200 A=    0.0000 R=    0.0000 C=    0.0000
 XYZ=   -6.8902   -6.8311   -2.9345 Q=    0.4100 A=    0.0000 R=    0.0000 C=    0.0000
 XYZ=   -7.4675   -8.3506   -3.0906 Q=    0.4100 A=    0.0000 R=    0.0000 C=    0.0000
 XYZ=   -5.6181    3.3018  -10.7835 Q=   -0.8200 A=    0.0000 R=    0.0000 C=    0.0000
 XYZ=   -6.2508    2.5504  -10.9710 Q=    0.4100 A=    0.0000 R=    0.0000 C=    0.0000
 XYZ=   -4.7903    2.9412  -10.3538 Q=    0.4100 A=    0.0000 R=    0.0000 C=    0.0000
 XYZ=   -9.2719   -2.1299    4.8698 Q=   -0.8200 A=    0.0000 R=    0.0000 C=    0.0000
 XYZ=   -9.1460   -1.7436    3.9560 Q=    0.4100 A=    0.0000 R=    0.0000 C=    0.0000
 XYZ=   -9.9120   -2.8966    4.8222 Q=    0.4100 A=    0.0000 R=    0.0000 C=    0.0000
 XYZ=    3.9514    5.5447    8.9912 Q=   -0.8200 A=    0.0000 R=    0.0000 C=    0.0000
 XYZ=    4.5511    6.2829    9.3001 Q=    0.4100 A=    0.0000 R=    0.0000 C=    0.0000
 XYZ=    4.1865    5.2952    8.0518 Q=    0.4100 A=    0.0000 R=    0.0000 C=    0.0000
 XYZ=    9.0247   -3.5726   -6.9113 Q=   -0.8200 A=    0.0000 R=    0.0000 C=    0.0000
 XYZ=    8.6360   -2.8598   -6.3274 Q=    0.4100 A=    0.0000 R=    0.0000 C=    0.0000
 XYZ=    9.0056   -3.2700   -7.8642 Q=    0.4100 A=    0.0000 R=    0.0000 C=    0.0000
 XYZ=    0.9169    5.3054  -11.2323 Q=   -0.8200 A=    0.0000 R=    0.0000 C=    0.0000
 XYZ=    1.7207    5.8881  -11.1117 Q=    0.4100 A=    0.0000 R=    0.0000 C=    0.0000
 XYZ=    0.1593    5.6660  -10.6883 Q=    0.4100 A=    0.0000 R=    0.0000 C=    0.0000
 XYZ=   10.5464    0.5584   -0.8011 Q=   -0.8200 A=    0.0000 R=    0.0000 C=    0.0000
 XYZ=   10.1022   -0.1810   -1.3070 Q=    0.4100 A=    0.0000 R=    0.0000 C=    0.0000
 XYZ=   10.0770    0.6942    0.0714 Q=    0.4100 A=    0.0000 R=    0.0000 C=    0.0000
 XYZ=    8.3817   -8.3709    3.5385 Q=   -0.8200 A=    0.0000 R=    0.0000 C=    0.0000
 XYZ=    7.5673   -7.9798    3.1096 Q=    0.4100 A=    0.0000 R=    0.0000 C=    0.0000
 XYZ=    8.1119   -8.9096    4.3367 Q=    0.4100 A=    0.0000 R=    0.0000 C=    0.0000
 XYZ=   -5.7811   10.6174   -4.7875 Q=   -0.8200 A=    0.0000 R=    0.0000 C=    0.0000
 XYZ=   -5.3397    9.8569   -4.3112 Q=    0.4100 A=    0.0000 R=    0.0000 C=    0.0000
 XYZ=   -5.1310   11.0354   -5.4221 Q=    0.4100 A=    0.0000 R=    0.0000 C=    0.0000
 XYZ=   -2.4965   -3.6698  -11.0698 Q=   -0.8200 A=    0.0000 R=    0.0000 C=    0.0000
 XYZ=   -1.7251   -4.1530  -10.6556 Q=    0.4100 A=    0.0000 R=    0.0000 C=    0.0000
 XYZ=   -2.4617   -3.7762  -12.0636 Q=    0.4100 A=    0.0000 R=    0.0000 C=    0.0000
 XYZ=   -9.6530    2.9245   -7.0541 Q=   -0.8200 A=    0.0000 R=    0.0000 C=    0.0000
 XYZ=  -10.1074    3.6166   -6.4933 Q=    0.4100 A=    0.0000 R=    0.0000 C=    0.0000
 XYZ=   -8.6678    3.0960   -7.0617 Q=    0.4100 A=    0.0000 R=    0.0000 C=    0.0000
 XYZ=   -3.5133    4.8307   10.1836 Q=   -0.8200 A=    0.0000 R=    0.0000 C=    0.0000
 XYZ=   -3.6936    5.7998   10.0150 Q=    0.4100 A=    0.0000 R=    0.0000 C=    0.0000
 XYZ=   -3.2127    4.3950    9.3352 Q=    0.4100 A=    0.0000 R=    0.0000 C=    0.0000
 XYZ=    7.3519    7.0732    4.6654 Q=   -0.8200 A=    0.0000 R=    0.0000 C=    0.0000
 XYZ=    7.9899    6.3267    4.8540 Q=    0.4100 A=    0.0000 R=    0.0000 C=    0.0000
 XYZ=    6.7564    6.8184    3.9035 Q=    0.4100 A=    0.0000 R=    0.0000 C=    0.0000
 XYZ=    6.8706    4.7915   -7.5990 Q=   -0.8200 A=    0.0000 R=    0.0000 C=    0.0000
 XYZ=    7.8206    5.1006   -7.6431 Q=    0.4100 A=    0.0000 R=    0.0000 C=    0.0000
 XYZ=    6.3784    5.1106   -8.4090 Q=    0.4100 A=    0.0000 R=    0.0000 C=    0.0000
 XYZ=   -7.6192    0.4998   -8.5922 Q=   -0.8200 A=    0.0000 R=    0.0000 C=    0.0000
 XYZ=   -8.5145    0.9450   -8.5785 Q=    0.4100 A=    0.0000 R=    0.0000 C=    0.0000
 XYZ=   -7.7369   -0.4809   -8.7486 Q=    0.4100 A=    0.0000 R=    0.0000 C=    0.0000
 XYZ=    4.9744   -5.0988   -9.3788 Q=   -0.8200 A=    0.0000 R=    0.0000 C=    0.0000
 XYZ=    5.3661   -5.8860   -9.8551 Q=    0.4100 A=    0.0000 R=    0.0000 C=    0.0000
 XYZ=    5.0158   -4.2954   -9.9730 Q=    0.4100 A=    0.0000 R=    0.0000 C=    0.0000
 XYZ=  -11.0560    1.3567    3.0855 Q=   -0.8200 A=    0.0000 R=    0.0000 C=    0.0000
 XYZ=  -10.0580    1.3568    3.1475 Q=    0.4100 A=    0.0000 R=    0.0000 C=    0.0000
 XYZ=  -11.3463    0.7051    2.3846 Q=    0.4100 A=    0.0000 R=    0.0000 C=    0.0000
 XYZ=   -0.3863    9.4553    7.6715 Q=   -0.8200 A=    0.0000 R=    0.0000 C=    0.0000
 XYZ=   -0.4511    8.9151    6.8325 Q=    0.4100 A=    0.0000 R=    0.0000 C=    0.0000
 XYZ=    0.5217    9.8701    7.7315 Q=    0.4100 A=    0.0000 R=    0.0000 C=    0.0000
 XYZ=    0.4756    5.1783    9.9748 Q=   -0.8200 A=    0.0000 R=    0.0000 C=    0.0000
 XYZ=   -0.3732    5.3043   10.4884 Q=    0.4100 A=    0.0000 R=    0.0000 C=    0.0000
 XYZ=    0.8706    4.2870   10.1973 Q=    0.4100 A=    0.0000 R=    0.0000 C=    0.0000
 XYZ=   -0.1743   -1.2361   11.9981 Q=   -0.8200 A=    0.0000 R=    0.0000 C=    0.0000
 XYZ=   -0.6433   -1.7767   11.2996 Q=    0.4100 A=    0.0000 R=    0.0000 C=    0.0000
 XYZ=   -0.8485   -0.7312   12.5372 Q=    0.4100 A=    0.0000 R=    0.0000 C=    0.0000
 XYZ=   -7.4674   -3.6565   -7.2821 Q=   -0.8200 A=    0.0000 R=    0.0000 C=    0.0000
 XYZ=   -6.9476   -4.0754   -8.0267 Q=    0.4100 A=    0.0000 R=    0.0000 C=    0.0000
 XYZ=   -7.8581   -2.7906   -7.5945 Q=    0.4100 A=    0.0000 R=    0.0000 C=    0.0000
 XYZ=   -8.2974   -5.5263    5.7464 Q=   -0.8200 A=    0.0000 R=    0.0000 C=    0.0000
 XYZ=   -8.9061   -5.7597    4.9881 Q=    0.4100 A=    0.0000 R=    0.0000 C=    0.0000
 XYZ=   -8.0197   -4.5688    5.6683 Q=    0.4100 A=    0.0000 R=    0.0000 C=    0.0000
 XYZ=   -9.0528   -6.2005    1.4018 Q=   -0.8200 A=    0.0000 R=    0.0000 C=    0.0000
 XYZ=   -9.5621   -6.8583    0.8468 Q=    0.4100 A=    0.0000 R=    0.0000 C=    0.0000
 XYZ=   -8.6183   -5.5263    0.8045 Q=    0.4100 A=    0.0000 R=    0.0000 C=    0.0000
 XYZ=    8.8444    7.4129   -1.5455 Q=   -0.8200 A=    0.0000 R=    0.0000 C=    0.0000
 XYZ=    8.7005    7.7736   -2.4670 Q=    0.4100 A=    0.0000 R=    0.0000 C=    0.0000
 XYZ=    7.9739    7.0893   -1.1746 Q=    0.4100 A=    0.0000 R=    0.0000 C=    0.0000
 XYZ=   -6.3655   -6.7762   -7.5986 Q=   -0.8200 A=    0.0000 R=    0.0000 C=    0.0000
 XYZ=   -5.7142   -7.4133   -8.0107 Q=    0.4100 A=    0.0000 R=    0.0000 C=    0.0000
 XYZ=   -6.0739   -6.5572   -6.6674 Q=    0.4100 A=    0.0000 R=    0.0000 C=    0.0000
 XYZ=  -10.4627    4.3815   -5.1864 Q=   -0.8200 A=    0.0000 R=    0.0000 C=    0.0000
 XYZ=   -9.6542    4.8111   -4.7841 Q=    0.4100 A=    0.0000 R=    0.0000 C=    0.0000
 XYZ=  -10.7102    3.5724   -4.6533 Q=    0.4100 A=    0.0000 R=    0.0000 C=    0.0000
 XYZ=   -5.9287   -9.8239   -1.6583 Q=   -0.8200 A=    0.0000 R=    0.0000 C=    0.0000
 XYZ=   -6.7245  -10.4009   -1.8426 Q=    0.4100 A=    0.0000 R=    0.0000 C=    0.0000
 XYZ=   -5.9857   -8.9916   -2.2097 Q=    0.4100 A=    0.0000 R=    0.0000 C=    0.0000
 XYZ=   -7.6601    8.7340    3.2832 Q=   -0.8200 A=    0.0000 R=    0.0000 C=    0.0000
 XYZ=   -8.0042    7.7996    3.1906 Q=    0.4100 A=    0.0000 R=    0.0000 C=    0.0000
 XYZ=   -7.5776    8.9642    4.2528 Q=    0.4100 A=    0.0000 R=    0.0000 C=    0.0000
 XYZ=   10.8803   -4.8288    0.6807 Q=   -0.8200 A=    0.0000 R=    0.0000 C=    0.0000
 XYZ=   10.3481   -4.7422   -0.1615 Q=    0.4100 A=    0.0000 R=    0.0000 C=    0.0000
 XYZ=   11.3289   -5.7224    0.7011 Q=    0.4100 A=    0.0000 R=    0.0000 C=    0.0000
 XYZ=    3.6707   -0.3318   11.6929 Q=   -0.8200 A=    0.0000 R=    0.0000 C=    0.0000
 XYZ=    3.9877   -0.5968   10.7822 Q=    0.4100 A=    0.0000 R=    0.0000 C=    0.0000
 XYZ=    4.4028    0.1512   12.1732 Q=    0.4100 A=    0.0000 R=    0.0000 C=    0.0000
 XYZ=    7.5735    8.3962   -5.5628 Q=   -0.8200 A=    0.0000 R=    0.0000 C=    0.0000
 XYZ=    6.9792    7.5919   -5.5630 Q=    0.4100 A=    0.0000 R=    0.0000 C=    0.0000
 XYZ=    8.1944    8.3516   -4.7801 Q=    0.4100 A=    0.0000 R=    0.0000 C=    0.0000
 XYZ=    7.8900   -5.5017   -6.6107 Q=   -0.8200 A=    0.0000 R=    0.0000 C=    0.0000
 XYZ=    8.4396   -4.6697   -6.6861 Q=    0.4100 A=    0.0000 R=    0.0000 C=    0.0000
 XYZ=    8.4670   -6.2993   -6.7868 Q=    0.4100 A=    0.0000 R=    0.0000 C=    0.0000
 XYZ=    5.2381   -3.2898  -10.9201 Q=   -0.8200 A=    0.0000 R=    0.0000 C=    0.0000
 XYZ=    5.6505   -3.2266  -11.8289 Q=    0.4100 A=    0.0000 R=    0.0000 C=    0.0000
 XYZ=    5.7198   -2.6783  -10.2923 Q=    0.4100 A=    0.0000 R=    0.0000 C=    0.0000
 XYZ=   -3.8643  -10.8395   -1.3966 Q=   -0.8200 A=    0.0000 R=    0.0000 C=    0.0000
 XYZ=   -3.7007  -11.4473   -2.1736 Q=    0.4100 A=    0.0000 R=    0.0000 C=    0.0000
 XYZ=   -4.8167  -10.5347   -1.4067 Q=    0.4100 A=    0.0000 R=    0.0000 C=    0.0000
 XYZ=   -4.4012   11.0748    1.9293 Q=   -0.8200 A=    0.0000 R=    0.0000 C=    0.0000
 XYZ=   -4.9940   11.4645    2.6342 Q=    0.4100 A=    0.0000 R=    0.0000 C=    0.0000
 XYZ=   -4.9342   10.9103    1.0993 Q=    0.4100 A=    0.0000 R=    0.0000 C=    0.0000
 XYZ=   -4.1734   11.3502   -6.6157 Q=   -0.8200 A=    0.0000 R=    0.0000 C=    0.0000
 XYZ=   -3.7213   10.5010   -6.3429 Q=    0.4100 A=    0.0000 R=    0.0000 C=    0.0000
 XYZ=   -3.5021   12.0907   -6.6448 Q=    0.4100 A=    0.0000 R=    0.0000 C=    0.0000
 XYZ=   -9.0082    5.6823    5.6215 Q=   -0.8200 A=    0.0000 R=    0.0000 C=    0.0000
 XYZ=   -8.6283    4.7759    5.8061 Q=    0.4100 A=    0.0000 R=    0.0000 C=    0.0000
 XYZ=   -8.4067    6.3810    6.0088 Q=    0.4100 A=    0.0000 R=    0.0000 C=    0.0000
 XYZ=  -11.2379   -0.5098    1.5234 Q=   -0.8200 A=    0.0000 R=    0.0000 C=    0.0000
 XYZ=  -10.9001   -0.3157    0.6024 Q=    0.4100 A=    0.0000 R=    0.0000 C=    0.0000
 XYZ=  -10.4691   -0.7472    2.1172 Q=    0.4100 A=    0.0000 R=    0.0000 C=    0.0000
 XYZ=    0.9405   -5.7710  -11.7701 Q=   -0.8200 A=    0.0000 R=    0.0000 C=    0.0000
 XYZ=    0.3890   -5.3394  -11.0563 Q=    0.4100 A=    0.0000 R=    0.0000 C=    0.0000
 XYZ=    1.9095   -5.5995  -11.5919 Q=    0.4100 A=    0.0000 R=    0.0000 C=    0.0000
 XYZ=    0.8013    2.3189   12.3386 Q=   -0.8200 A=    0.0000 R=    0.0000 C=    0.0000
 XYZ=    0.9185    2.4842   11.3593 Q=    0.4100 A=    0.0000 R=    0.0000 C=    0.0000
 XYZ=    1.0844    1.3845   12.5551 Q=    0.4100 A=    0.0000 R=    0.0000 C=    0.0000
 XYZ=   -4.7084   -5.0755    9.3787 Q=   -0.8200 A=    0.0000 R=    0.0000 C=    0.0000
 XYZ=   -5.2689   -5.7275    8.8681 Q=    0.4100 A=    0.0000 R=    0.0000 C=    0.0000
 XYZ=   -4.7630   -5.2825   10.3556 Q=    0.4100 A=    0.0000 R=    0.0000 C=    0.0000
 XYZ=   -5.8239   10.7744   -0.1022 Q=   -0.8200 A=    0.0000 R=    0.0000 C=    0.0000
 XYZ=   -6.2508   11.5576   -0.5543 Q=    0.4100 A=    0.0000 R=    0.0000 C=    0.0000
 XYZ=   -6.5119   10.2813    0.4303 Q=    0.4100 A=    0.0000 R=    0.0000 C=    0.0000
 XYZ=    9.3022   -4.2162    7.0114 Q=   -0.8200 A=    0.0000 R=    0.0000 C=    0.0000
 XYZ=    8.4116   -3.7622    6.9858 Q=    0.4100 A=    0.0000 R=    0.0000 C=    0.0000
 XYZ=    9.3715   -4.7675    7.8429 Q=    0.4100 A=    0.0000 R=    0.0000 C=    0.0000
 XYZ=   -3.0070  -12.0382    0.5844 Q=   -0.8200 A=    0.0000 R=    0.0000 C=    0.0000
 XYZ=   -3.3996  -11.5027   -0.1634 Q=    0.4100 A=    0.0000 R=    0.0000 C=    0.0000
 XYZ=   -2.6455  -12.8983    0.2244 Q=    0.4100 A=    0.0000 R=    0.0000 C=    0.0000
 XYZ=   -7.3815    9.6954    1.0906 Q=   -0.8200 A=    0.0000 R=    0.0000 C=    0.0000
 XYZ=   -8.2280   10.0122    0.6628 Q=    0.4100 A=    0.0000 R=    0.0000 C=    0.0000
 XYZ=   -7.5522    9.4882    2.0539 Q=    0.4100 A=    0.0000 R=    0.0000 C=    0.0000
 XYZ=   -4.3726    7.1387    9.0353 Q=   -0.8200 A=    0.0000 R=    0.0000 C=    0.0000
 XYZ=   -4.6493    6.2661    8.6328 Q=    0.4100 A=    0.0000 R=    0.0000 C=    0.0000
 XYZ=   -5.1446    7.5370    9.5306 Q=    0.4100 A=    0.0000 R=    0.0000 C=    0.0000
 XYZ=   -6.9858    1.4553  -10.7818 Q=   -0.8200 A=    0.0000 R=    0.0000 C=    0.0000
 XYZ=   -7.3097    1.0666   -9.9192 Q=    0.4100 A=    0.0000 R=    0.0000 C=    0.0000
 XYZ=   -7.7376    1.4769  -11.4408 Q=    0.4100 A=    0.0000 R=    0.0000 C=    0.0000
 XYZ=    8.6708    5.1669    5.3710 Q=   -0.8200 A=    0.0000 R=    0.0000 C=    0.0000
 XYZ=    8.7433    4.1712    5.3129 Q=    0.4100 A=    0.0000 R=    0.0000 C=    0.0000
 XYZ=    8.6127    5.4414    6.3309 Q=    0.4100 A=    0.0000 R=    0.0000 C=    0.0000
 XYZ=   -4.2359   -7.9100   -8.3131 Q=   -0.8200 A=    0.0000 R=    0.0000 C=    0.0000
 XYZ=   -3.7394   -7.2849   -8.9154 Q=    0.4100 A=    0.0000 R=    0.0000 C=    0.0000
 XYZ=   -3.7509   -8.7832   -8.2662 Q=    0.4100 A=    0.0000 R=    0.0000 C=    0.0000
 XYZ=    9.5814   -7.4052   -3.4138 Q=   -0.8200 A=    0.0000 R=    0.0000 C=    0.0000
 XYZ=    9.3281   -7.3612   -2.4474 Q=    0.4100 A=    0.0000 R=    0.0000 C=    0.0000
 XYZ=   10.3501   -8.0345   -3.5285 Q=    0.4100 A=    0.0000 R=    0.0000 C=    0.0000
 XYZ=    0.2487   -9.3445   -9.3666 Q=   -0.8200 A=    0.0000 R=    0.0000 C=    0.0000
 XYZ=    0.5213   -8.8335  -10.1819 Q=    0.4100 A=    0.0000 R=    0.0000 C=    0.0000
 XYZ=    0.0488   -8.7052   -8.6239 Q=    0.4100 A=    0.0000 R=    0.0000 C=    0.0000
 XYZ=   -6.6437    4.8771    9.2439 Q=   -0.8200 A=    0.0000 R=    0.0000 C=    0.0000
 XYZ=   -7.2948    5.6243    9.1103 Q=    0.4100 A=    0.0000 R=    0.0000 C=    0.0000
 XYZ=   -5.8386    5.0300    8.6707 Q=    0.4100 A=    0.0000 R=    0.0000 C=    0.0000
 XYZ=   -7.9539   -8.2720    1.8128 Q=   -0.8200 A=    0.0000 R=    0.0000 C=    0.0000
 XYZ=   -8.2725   -7.3247    1.8462 Q=    0.4100 A=    0.0000 R=    0.0000 C=    0.0000
 XYZ=   -7.5822   -8.5303    2.7045 Q=    0.4100 A=    0.0000 R=    0.0000 C=    0.0000
 XYZ=  -11.3998    2.4035   -1.4743 Q=   -0.8200 A=    0.0000 R=    0.0000 C=    0.0000
 XYZ=  -12.3685    2.1690   -1.3922 Q=    0.4100 A=    0.0000 R=    0.0000 C=    0.0000
 XYZ=  -11.1618    3.0841   -0.7814 Q=    0.4100 A=    0.0000 R=    0.0000 C=    0.0000
 XYZ=    8.6805   -3.1192   -9.2050 Q=   -0.8200 A=    0.0000 R=    0.0000 C=    0.0000
 XYZ=    7.9673   -2.4269   -9.0952 Q=    0.4100 A=    0.0000 R=    0.0000 C=    0.0000
 XYZ=    8.3636   -3.8271   -9.8363 Q=    0.4100 A=    0.0000 R=    0.0000 C=    0.0000
[...]
    39  O    0.000024  -0.000001   0.000000   0.000000   0.000000  -0.000001
    40  H    0.000000   0.000000   0.000000   0.000000   0.000000   0.000000
    41  H    0.000017   0.000000   0.000000   0.000000   0.000000   0.000000
    42  O    0.000000   0.000000   0.000142  -0.000003   0.000000  -0.000001
    43  H    0.000000   0.000000   0.000027   0.000000   0.000000   0.000000
    44  H    0.000000   0.000000   0.000052   0.000000   0.000000   0.000000
    45  O   -0.000097  -0.001089   0.000000   0.000000   0.000000  -0.017241
    46  H    0.000084  -0.000536   0.000000   0.000000   0.000000  -0.001720
    47  H    0.000020   0.000028   0.000000   0.000000   0.000000   0.001945
    48  O    0.000000   0.000000   0.000025   0.000000  -0.000001   0.000000
    49  H    0.000000   0.000000  -0.000002   0.000000   0.000000   0.000000
    50  H    0.000000   0.000000   0.000000   0.000000   0.000000   0.000000
              31         32         33         34         35         36
     1  C    0.000230  -0.000012  -0.000853   0.000058  -0.000054   0.000034
     2  H   -0.000001   0.000000   0.000002   0.000000   0.000000   0.000000
     3  H    0.000000   0.000000   0.000000   0.000000   0.000000   0.000000
     4  C   -0.000783   0.000040   0.004896  -0.000157  -0.000257  -0.009217
     5  H    0.000000   0.000000   0.000000   0.000000   0.000000  -0.000005
     6  C    0.000721  -0.000075   0.001467   0.000447  -0.000889  -0.001534
     7  H    0.000000   0.000000   0.000080  -0.000001  -0.000029  -0.000031
     8  O   -0.000110   0.000003  -0.002751   0.000145  -0.000269   0.000106
     9  O   -0.000028   0.000000  -0.008637   0.000286   0.006778   0.008878
    10  H    0.000001   0.000000   0.001997  -0.000093  -0.000727  -0.001261
    11  H    0.000000   0.000000  -0.000059  -0.000259  -0.001534  -0.003615
    12  O   -0.000004   0.000000  -0.000926   0.000063   0.000087   0.000012
    13  H    0.000000   0.000000   0.000007   0.000000   0.000000   0.000000
    14  H    0.000000   0.000000   0.000180  -0.000038   0.000008   0.000000
    15  O    0.000000   0.000000   0.000000   0.000000   0.000000   0.000000
    16  H    0.000000   0.000000   0.000000   0.000000   0.000000   0.000000
    17  H    0.000000   0.000000   0.000000   0.000000   0.000000   0.000000
    18  O   -0.000952   0.000042  -0.074134   0.000870   0.060963  -0.011774
    19  H   -0.000009   0.000000   0.010020  -0.000206  -0.000885  -0.004064
    20  H    0.000004   0.000000  -0.000614   0.000026  -0.002732   0.000246
    21  O    0.000000   0.000000   0.000000   0.000000   0.000000   0.000000
    22  H    0.000000   0.000000   0.000000   0.000000   0.000000   0.000000
    23  H    0.000000   0.000000   0.000000   0.000000   0.000000   0.000000
    24  O    0.034587  -0.002910  -0.007164   0.000314  -0.001988  -0.000028
    25  H   -0.000767   0.000041   0.000933  -0.000057   0.000545  -0.000011
    26  H   -0.001623   0.000230  -0.000137  -0.000006   0.000010   0.000000
    27  O    0.000000   0.000000   0.000000   0.000000   0.000000   0.000000
    28  H    0.000000   0.000000   0.000000   0.000000   0.000000   0.000000
    29  H    0.000000   0.000000   0.000000   0.000000   0.000000   0.000000
    30  O    0.131694   0.200366  -0.000241   0.000024  -0.000029   0.000000
    31  H    0.226648  -0.003211   0.000135  -0.000019  -0.000061   0.000000
    32  H   -0.003211   0.211481   0.000007   0.000000   0.000000   0.000000
    33  O    0.000135   0.000007   9.098208   0.189903   0.065202   0.000697
    34  H   -0.000019   0.000000   0.189903   0.159375   0.001632  -0.000003
    35  H   -0.000061   0.000000   0.065202   0.001632   0.212007  -0.000115
    36  O    0.000000   0.000000   0.000697  -0.000003  -0.000115   8.851806
    37  H    0.000000   0.000000  -0.000035   0.000000   0.000003   0.228014
    38  H    0.000000   0.000000   0.000207  -0.000001  -0.000024   0.152494
    39  O    0.000000   0.000000  -0.075978   0.001018   0.002838  -0.001653
    40  H    0.000000   0.000000   0.000681  -0.000004  -0.000005   0.000001
    41  H    0.000000   0.000000   0.058545  -0.000803  -0.000606   0.000062
    42  O   -0.000001   0.000000  -0.000052   0.000008   0.000003   0.000000
    43  H    0.000000   0.000000   0.000000   0.000000   0.000000   0.000000
    44  H    0.000000   0.000000  -0.000014   0.000000   0.000000   0.000000
    45  O   -0.000038   0.009612   0.000014   0.000000  -0.000002   0.000000
    46  H    0.000123   0.000431   0.000004   0.000000   0.000001   0.000000
    47  H   -0.000347   0.003135   0.000000   0.000000   0.000000   0.000000
    48  O    0.000000   0.000000   0.000000   0.000000   0.000000   0.000000
    49  H    0.000000   0.000000   0.000000   0.000000   0.000000   0.000000
    50  H    0.000000   0.000000   0.000000   0.000000   0.000000   0.000000
              37         38         39         40         41         42
     1  C    0.000000  -0.000074  -0.000235   0.000009   0.000034  -0.000795
     2  H    0.000000   0.000000   0.000000   0.000000   0.000000   0.000447
     3  H    0.000000   0.000000   0.000000   0.000000   0.000000  -0.000006
     4  C    0.000211   0.000988   0.002948  -0.000032  -0.000173  -0.004567
     5  H    0.000000  -0.000001   0.000000   0.000000   0.000000  -0.000002
     6  C    0.000384  -0.000769   0.000359  -0.000264  -0.001074   0.007619
     7  H    0.000016  -0.001111  -0.000159   0.000001   0.000023  -0.000006
     8  O   -0.000019   0.000243  -0.003391   0.000078  -0.000043  -0.002897
     9  O    0.001889  -0.012760  -0.081017   0.002320   0.013954   0.000010
    10  H    0.000062   0.003404  -0.000601  -0.000072  -0.001367  -0.000003
    11  H    0.000024   0.001140   0.076700  -0.001519  -0.005797   0.000000
    12  O    0.000000  -0.000016  -0.000201   0.000015   0.000120  -0.093060
    13  H    0.000000   0.000000   0.000001   0.000000   0.000000   0.003641
    14  H    0.000000   0.000006   0.000013  -0.000003  -0.000026   0.004638
    15  O    0.000000   0.000000  -0.000002   0.000000   0.000000  -0.000758
    16  H    0.000000   0.000000   0.000000   0.000000   0.000000   0.000245
    17  H    0.000000   0.000000   0.000000   0.000000   0.000000   0.000083
    18  O    0.000065  -0.001774  -0.011014   0.000071   0.001734  -0.000021
    19  H   -0.000138  -0.001080   0.003006   0.000022  -0.001014   0.000000
    20  H   -0.000027   0.000026   0.000131   0.000001  -0.000041   0.000000
    21  O    0.000000   0.000000   0.000000   0.000000   0.000000   0.000000
    22  H    0.000000   0.000000   0.000000   0.000000   0.000000   0.000000
    23  H    0.000000   0.000000   0.000000   0.000000   0.000000   0.000000
    24  O    0.000001  -0.000002   0.000124  -0.000001   0.000073   0.000003
    25  H    0.000000  -0.000006   0.000024   0.000000   0.000017   0.000000
    26  H    0.000000   0.000000  -0.000001   0.000000   0.000000   0.000000
    27  O    0.000000   0.000000   0.000000   0.000000   0.000000   0.000142
    28  H    0.000000   0.000000   0.000000   0.000000   0.000000  -0.000003
    29  H    0.000000   0.000000   0.000000   0.000000   0.000000   0.000000
    30  O    0.000000   0.000000  -0.000001   0.000000   0.000000  -0.000001
    31  H    0.000000   0.000000   0.000000   0.000000   0.000000  -0.000001
    32  H    0.000000   0.000000   0.000000   0.000000   0.000000   0.000000
    33  O   -0.000035   0.000207  -0.075978   0.000681   0.058545  -0.000052
    34  H    0.000000  -0.000001   0.001018  -0.000004  -0.000803   0.000008
    35  H    0.000003  -0.000024   0.002838  -0.000005  -0.000606   0.000003
    36  O    0.228014   0.152494  -0.001653   0.000001   0.000062   0.000000
    37  H    0.198912  -0.009277  -0.000145   0.000000   0.000002   0.000000
    38  H   -0.009277   0.204849  -0.000131   0.000006   0.000119   0.000000
    39  O   -0.000145  -0.000131   8.939073   0.219360   0.100851  -0.000001
    40  H    0.000000   0.000006   0.219360   0.183875  -0.001606   0.000000
    41  H    0.000002   0.000119   0.100851  -0.001606   0.229101   0.000001
    42  O    0.000000   0.000000  -0.000001   0.000000   0.000001   8.955615
    43  H    0.000000   0.000000   0.000000   0.000000   0.000000   0.213242
    44  H    0.000000   0.000000  -0.000002   0.000000   0.000000   0.141045
    45  O    0.000000   0.000000   0.000000   0.000000   0.000000   0.000000
    46  H    0.000000   0.000000   0.000000   0.000000   0.000000   0.000000
    47  H    0.000000   0.000000   0.000000   0.000000   0.000000   0.000000
    48  O    0.000000   0.000000   0.000000   0.000000   0.000000   0.000000
    49  H    0.000000   0.000000   0.000000   0.000000   0.000000   0.000000
    50  H    0.000000   0.000000   0.000000   0.000000   0.000000   0.000000
              43         44         45         46         47         48
     1  C   -0.000340   0.002166  -0.000045  -0.000040  -0.000009  -0.000494
     2  H    0.000060   0.000057   0.000000   0.000000   0.000000   0.000000
     3  H    0.000002  -0.000004   0.000000   0.000000   0.000000  -0.000025
     4  C    0.001356  -0.002538  -0.000193  -0.000107   0.000010   0.000113
     5  H    0.000000   0.000000   0.000000   0.000000   0.000000  -0.000006
     6  C   -0.000865   0.002663   0.000004   0.000065  -0.000013  -0.000069
     7  H    0.000000   0.000000   0.000000   0.000000   0.000000   0.000000
     8  O   -0.000159  -0.001438  -0.000004  -0.000011   0.000002   0.000000
     9  O    0.000000  -0.000004   0.000006  -0.000002   0.000000   0.000000
    10  H    0.000000  -0.000002   0.000000   0.000000   0.000000   0.000000
    11  H    0.000000   0.000000   0.000000   0.000000   0.000000   0.000000
    12  O    0.002728   0.012204   0.000000   0.000000   0.000000   0.000000
    13  H   -0.000830  -0.001367   0.000000   0.000000   0.000000   0.000000
    14  H    0.000011   0.004259   0.000000   0.000000   0.000000   0.000000
    15  O    0.002131   0.001034   0.000000   0.000000   0.000000   0.000000
    16  H   -0.000169   0.000017   0.000000   0.000000   0.000000   0.000000
    17  H    0.000008   0.000020   0.000000   0.000000   0.000000   0.000000
    18  O    0.000000  -0.000006  -0.000273  -0.000091   0.000025   0.000000
    19  H    0.000000   0.000000   0.000010  -0.000004   0.000000   0.000000
    20  H    0.000000   0.000000  -0.000006  -0.000003   0.000000   0.000000
    21  O    0.000000   0.000000   0.000000   0.000000   0.000000  -0.064748
    22  H    0.000000   0.000000   0.000000   0.000000   0.000000   0.002487
    23  H    0.000000   0.000000   0.000000   0.000000   0.000000  -0.002119
    24  O    0.000000   0.000000  -0.012713   0.011483  -0.000021   0.000000
    25  H    0.000000   0.000000  -0.000097   0.000084   0.000020   0.000000
    26  H    0.000000   0.000000  -0.001089  -0.000536   0.000028   0.000000
    27  O    0.000027   0.000052   0.000000   0.000000   0.000000   0.000025
    28  H    0.000000   0.000000   0.000000   0.000000   0.000000   0.000000
    29  H    0.000000   0.000000   0.000000   0.000000   0.000000  -0.000001
    30  O    0.000000   0.000000  -0.017241  -0.001720   0.001945   0.000000
    31  H    0.000000   0.000000  -0.000038   0.000123  -0.000347   0.000000
    32  H    0.000000   0.000000   0.009612   0.000431   0.003135   0.000000
    33  O    0.000000  -0.000014   0.000014   0.000004   0.000000   0.000000
    34  H    0.000000   0.000000   0.000000   0.000000   0.000000   0.000000
    35  H    0.000000   0.000000  -0.000002   0.000001   0.000000   0.000000
    36  O    0.000000   0.000000   0.000000   0.000000   0.000000   0.000000
    37  H    0.000000   0.000000   0.000000   0.000000   0.000000   0.000000
    38  H    0.000000   0.000000   0.000000   0.000000   0.000000   0.000000
    39  O    0.000000  -0.000002   0.000000   0.000000   0.000000   0.000000
    40  H    0.000000   0.000000   0.000000   0.000000   0.000000   0.000000
    41  H    0.000000   0.000000   0.000000   0.000000   0.000000   0.000000
    42  O    0.213242   0.141045   0.000000   0.000000   0.000000   0.000000
    43  H    0.233639  -0.003137   0.000000   0.000000   0.000000   0.000000
    44  H   -0.003137   0.200327   0.000000   0.000000   0.000000   0.000000
    45  O    0.000000   0.000000   8.648945   0.201973   0.241535   0.000000
    46  H    0.000000   0.000000   0.201973   0.267770  -0.012918   0.000000
    47  H    0.000000   0.000000   0.241535  -0.012918   0.219090   0.000000
    48  O    0.000000   0.000000   0.000000   0.000000   0.000000   8.809380
    49  H    0.000000   0.000000   0.000000   0.000000   0.000000   0.179740
    50  H    0.000000   0.000000   0.000000   0.000000   0.000000   0.223257
              49         50
     1  C    0.000048  -0.000041
     2  H    0.000000   0.000000
     3  H   -0.000001   0.000000
     4  C   -0.000016   0.000069
     5  H    0.000000   0.000000
     6  C    0.000131   0.000001
     7  H    0.000000   0.000000
     8  O    0.000000   0.000000
     9  O    0.000000   0.000000
    10  H    0.000000   0.000000
    11  H    0.000000   0.000000
    12  O    0.000000   0.000000
    13  H    0.000000   0.000000
    14  H    0.000000   0.000000
    15  O    0.000000   0.000000
    16  H    0.000000   0.000000
    17  H    0.000000   0.000000
    18  O    0.000000   0.000000
    19  H    0.000000   0.000000
    20  H    0.000000   0.000000
    21  O    0.014059   0.001877
    22  H   -0.000430   0.000037
    23  H   -0.000449   0.000026
    24  O    0.000000   0.000000
    25  H    0.000000   0.000000
    26  H    0.000000   0.000000
    27  O   -0.000002   0.000000
    28  H    0.000000   0.000000
    29  H    0.000000   0.000000
    30  O    0.000000   0.000000
    31  H    0.000000   0.000000
    32  H    0.000000   0.000000
    33  O    0.000000   0.000000
    34  H    0.000000   0.000000
    35  H    0.000000   0.000000
    36  O    0.000000   0.000000
    37  H    0.000000   0.000000
    38  H    0.000000   0.000000
    39  O    0.000000   0.000000
    40  H    0.000000   0.000000
    41  H    0.000000   0.000000
    42  O    0.000000   0.000000
    43  H    0.000000   0.000000
    44  H    0.000000   0.000000
    45  O    0.000000   0.000000
    46  H    0.000000   0.000000
    47  H    0.000000   0.000000
    48  O    0.179740   0.223257
    49  H    0.250439  -0.007760
    50  H   -0.007760   0.198906
 Mulliken charges:
               1
     1  C   -0.367817
     2  H    0.290900
     3  H    0.230948
     4  C   -0.056422
     5  H    0.216756
     6  C   -0.082493
     7  H    0.168425
     8  O   -0.333402
     9  O   -1.387556
    10  H    0.547940
    11  H    0.656862
    12  O   -1.135603
    13  H    0.615898
    14  H    0.538615
    15  O   -1.321962
    16  H    0.650703
    17  H    0.630247
    18  O   -1.353211
    19  H    0.641363
    20  H    0.701174
    21  O   -1.168164
    22  H    0.497632
    23  H    0.674861
    24  O   -1.241194
    25  H    0.646863
    26  H    0.610289
    27  O   -1.157749
    28  H    0.600343
    29  H    0.613311
    30  O   -1.219176
    31  H    0.613810
    32  H    0.580821
    33  O   -1.261590
    34  H    0.647479
    35  H    0.660127
    36  O   -1.209038
    37  H    0.580059
    38  H    0.663546
    39  O   -1.171916
    40  H    0.597068
    41  H    0.607916
    42  O   -1.224572
    43  H    0.552295
    44  H    0.644665
    45  O   -1.070398
    46  H    0.533497
    47  H    0.547519
    48  O   -1.147540
    49  H    0.564241
    50  H    0.583629
 Sum of Mulliken charges =   0.00000
 Mulliken charges with hydrogens summed into heavy atoms:
               1
     1  C    0.154030
     4  C    0.160334
     6  C    0.085932
     8  O   -0.333402
     9  O   -0.182754
    12  O    0.018910
    15  O   -0.041013
    18  O   -0.010673
    21  O    0.004329
    24  O    0.015958
    27  O    0.055906
    30  O   -0.024545
    33  O    0.046017
    36  O    0.034567
    39  O    0.033068
    42  O   -0.027612
    45  O    0.010619
    48  O    0.000330
 Electronic spatial extent (au):  <R**2>=          13080.7750
 Charge=              0.0000 electrons
 Dipole moment (field-independent basis, Debye):
    X=             15.9756    Y=             -5.0033    Z=              4.8658  Tot=             17.4336
 Quadrupole moment (field-independent basis, Debye-Ang):
   XX=            -35.8732   YY=           -156.9310   ZZ=           -169.4500
   XY=            -10.6841   XZ=            -18.6317   YZ=            -20.3490
 Traceless Quadrupole moment (field-independent basis, Debye-Ang):
   XX=             84.8782   YY=            -36.1796   ZZ=            -48.6986
   XY=            -10.6841   XZ=            -18.6317   YZ=            -20.3490
 Octapole moment (field-independent basis, Debye-Ang**2):
  XXX=            594.5904  YYY=           -166.7404  ZZZ=             32.2680  XYY=             26.9299
  XXY=           -231.4033  XXZ=            135.0188  XZZ=            127.6890  YZZ=             58.8489
  YYZ=            -40.1528  XYZ=            -14.3714
 Hexadecapole moment (field-independent basis, Debye-Ang**3):
 XXXX=          -4920.5703 YYYY=          -4291.3033 ZZZZ=          -3915.3148 XXXY=           -197.2986
 XXXZ=             19.4985 YYYX=            279.3339 YYYZ=           -642.2705 ZZZX=           -320.3935
 ZZZY=           -184.6132 XXYY=          -2402.8982 XXZZ=          -1400.2837 YYZZ=          -1304.9091
 XXYZ=            215.6669 YYXZ=            -47.8021 ZZXY=            -29.5743
 N-N= 1.094373836077D+03 E-N=-6.153662727470D+03  KE= 1.249514864187D+03
 Leave Link  601 at Fri Sep 14 17:14:51 2018, MaxMem=    33554432 cpu:        14.8
 (Enter /usr/local/pacerepov1/gaussian/G09D01LINDA/g09/l9999.exe)

 Test job not archived.
 1\1\GINC-RICH133-C36-32-L\SP\RLC-wPBE TD-FC\6-31+G(d)\C3H32O15\ROOT\14
 -Sep-2018\0\\#p td=(nstates=15)/6-31+g(d) lc-wpbe charge\\Acroleina in
  Water\\0,1\C,0,0.485154,0.480443,-1.430142\H,0,1.461403,0.187773,-1.0
 55732\H,0,0.429244,0.878853,-2.437062\C,0,-0.605127,0.346563,-0.658432
 \H,0,-1.591686,0.632893,-1.012412\C,0,-0.508516,-0.199107,0.712798\H,0
 ,-1.458487,-0.272107,1.272438\O,0,0.544883,-0.561317,1.236519\O,0,-1.2
 08241,-1.181018,3.498332\H,0,-0.836541,-0.765718,2.668041\H,0,-0.81825
 1,-0.728818,4.300501\O,0,1.938899,1.597822,1.404801\H,0,1.535099,2.374
 372,0.921071\H,0,1.211259,1.030502,1.790441\O,0,1.359459,3.721172,0.29
 3011\H,0,2.042949,4.248002,-0.212269\H,0,0.443409,4.010851,0.015501\O,
 0,-0.079851,-3.091488,3.088061\H,0,-0.635521,-2.266938,3.194901\H,0,-0
 .480111,-3.834838,3.623991\O,0,-2.960721,3.371402,-4.055449\H,0,-2.292
 031,3.355782,-3.312068\H,0,-3.857231,3.624722,-3.691988\O,0,1.286689,-
 4.525369,1.721411\H,0,0.682129,-3.868668,2.172312\H,0,1.565919,-5.2263
 78,2.377651\O,0,-0.641321,4.531101,-0.443409\H,0,-0.145581,5.294781,-0
 .856999\H,0,-1.581741,4.521071,-0.783349\O,0,3.205269,-4.898129,0.3899
 91\H,0,2.431789,-4.483788,0.869671\H,0,2.884489,-5.318859,-0.458619\O,
 0,1.572629,-1.978398,4.427442\H,0,2.414419,-1.791898,3.920821\H,0,0.95
 4439,-2.520768,3.858481\O,0,-3.539911,-1.618288,3.815382\H,0,-3.562571
 ,-2.162158,4.654282\H,0,-2.590691,-1.413278,3.576632\O,0,-0.080921,-0.
 611708,5.573371\H,0,0.338379,0.082462,6.158462\H,0,0.632279,-1.093148,
 5.063881\O,0,4.109299,1.740142,0.747131\H,0,4.043309,1.993822,-0.21792
 9\H,0,3.194009,1.718662,1.149411\O,0,0.717059,-6.508089,-0.382779\H,0,
 0.566399,-5.662458,0.129321\H,0,1.490359,-6.387439,-1.005289\O,0,-3.28
 9891,1.298162,-5.447618\H,0,-3.019661,1.965242,-4.753309\H,0,-3.452001
 ,1.767612,-6.315609\\Version=EM64L-G09RevD.01\State=1-A\HF=-1758.84306
 53\RMSD=3.508e-09\PG=C01 [X(C3H32O15)]\\@


 A successful marriage requires falling in love
 many times, always with the same person.
                           -- Mignon McLaughlin
 Job cpu time:       0 days  2 hours 46 minutes 26.9 seconds.
 File lengths (MBytes):  RWF=    792 Int=      0 D2E=      0 Chk=     96 Scr=      2
 Normal termination of Gaussian 09 at Fri Sep 14 17:14:55 2018.
