 Entering Gaussian System, Link 0=g09
 Input=/media/mateus/Data/UV-Vis-Sp3ctrum-P4tronus/espectro_acroleina/Acroleina.gjf
 Output=/media/mateus/Data/UV-Vis-Sp3ctrum-P4tronus/espectro_acroleina/Acroleina.log
 Initial command:
 /home/mateus/GaussianApps/g09/l1.exe "/media/mateus/Data/Gaussian_Scratch/Gau-4021.inp" -scrdir="/media/mateus/Data/Gaussian_Scratch/"
 Entering Link 1 = /home/mateus/GaussianApps/g09/l1.exe PID=      4024.
  
 Copyright (c) 1988,1990,1992,1993,1995,1998,2003,2009,2013,
            Gaussian, Inc.  All Rights Reserved.
  
 This is part of the Gaussian(R) 09 program.  It is based on
 the Gaussian(R) 03 system (copyright 2003, Gaussian, Inc.),
 the Gaussian(R) 98 system (copyright 1998, Gaussian, Inc.),
 the Gaussian(R) 94 system (copyright 1995, Gaussian, Inc.),
 the Gaussian 92(TM) system (copyright 1992, Gaussian, Inc.),
 the Gaussian 90(TM) system (copyright 1990, Gaussian, Inc.),
 the Gaussian 88(TM) system (copyright 1988, Gaussian, Inc.),
 the Gaussian 86(TM) system (copyright 1986, Carnegie Mellon
 University), and the Gaussian 82(TM) system (copyright 1983,
 Carnegie Mellon University). Gaussian is a federally registered
 trademark of Gaussian, Inc.
  
 This software contains proprietary and confidential information,
 including trade secrets, belonging to Gaussian, Inc.
  
 This software is provided under written license and may be
 used, copied, transmitted, or stored only in accord with that
 written license.
  
 The following legend is applicable only to US Government
 contracts under FAR:
  
                    RESTRICTED RIGHTS LEGEND
  
 Use, reproduction and disclosure by the US Government is
 subject to restrictions as set forth in subparagraphs (a)
 and (c) of the Commercial Computer Software - Restricted
 Rights clause in FAR 52.227-19.
  
 Gaussian, Inc.
 340 Quinnipiac St., Bldg. 40, Wallingford CT 06492
  
  
 ---------------------------------------------------------------
 Warning -- This program may not be used in any manner that
 competes with the business of Gaussian, Inc. or will provide
 assistance to any competitor of Gaussian, Inc.  The licensee
 of this program is prohibited from giving any competitor of
 Gaussian, Inc. access to this program.  By using this program,
 the user acknowledges that Gaussian, Inc. is engaged in the
 business of creating and licensing software in the field of
 computational chemistry and represents and warrants to the
 licensee that it is not a competitor of Gaussian, Inc. and that
 it will not use this program in any manner prohibited above.
 ---------------------------------------------------------------
  

 Cite this work as:
 Gaussian 09, Revision D.01,
 M. J. Frisch, G. W. Trucks, H. B. Schlegel, G. E. Scuseria, 
 M. A. Robb, J. R. Cheeseman, G. Scalmani, V. Barone, B. Mennucci, 
 G. A. Petersson, H. Nakatsuji, M. Caricato, X. Li, H. P. Hratchian, 
 A. F. Izmaylov, J. Bloino, G. Zheng, J. L. Sonnenberg, M. Hada, 
 M. Ehara, K. Toyota, R. Fukuda, J. Hasegawa, M. Ishida, T. Nakajima, 
 Y. Honda, O. Kitao, H. Nakai, T. Vreven, J. A. Montgomery, Jr., 
 J. E. Peralta, F. Ogliaro, M. Bearpark, J. J. Heyd, E. Brothers, 
 K. N. Kudin, V. N. Staroverov, T. Keith, R. Kobayashi, J. Normand, 
 K. Raghavachari, A. Rendell, J. C. Burant, S. S. Iyengar, J. Tomasi, 
 M. Cossi, N. Rega, J. M. Millam, M. Klene, J. E. Knox, J. B. Cross, 
 V. Bakken, C. Adamo, J. Jaramillo, R. Gomperts, R. E. Stratmann, 
 O. Yazyev, A. J. Austin, R. Cammi, C. Pomelli, J. W. Ochterski, 
 R. L. Martin, K. Morokuma, V. G. Zakrzewski, G. A. Voth, 
 P. Salvador, J. J. Dannenberg, S. Dapprich, A. D. Daniels, 
 O. Farkas, J. B. Foresman, J. V. Ortiz, J. Cioslowski, 
 and D. J. Fox, Gaussian, Inc., Wallingford CT, 2013.
 
 ******************************************
 Gaussian 09:  EM64L-G09RevD.01 24-Apr-2013
                24-Sep-2018 
 ******************************************
 %chk=Acrolina_Din_1.chk
 %nprocshared=10
 Will use up to   10 processors via shared memory.
 ------------------------------------------------------------
 #p td=(nstates=15) b3lyp scrf=(iefpcm,solvent=water) cc-pvdz
 ------------------------------------------------------------
 1/38=1/1;
 2/12=2,17=6,18=5,40=1/2;
 3/5=16,11=9,16=1,25=1,30=1,70=2201,72=1,74=-5/1,2,8,3;
 4//1;
 5/5=2,38=5,53=1/2;
 8/6=1,10=1,108=15/1;
 9/41=15,42=1,70=2/14;
 6/7=2,8=2,9=2,10=2/1;
 99/5=1,9=1/99;
 Leave Link    1 at Mon Sep 24 16:08:24 2018, MaxMem=           0 cpu:         0.7
 (Enter /home/mateus/GaussianApps/g09/l101.exe)
 ------------------
 Acroleina in Water
 ------------------
 Symbolic Z-matrix:
 Charge =  0 Multiplicity = 1
 C                     1.17107   1.1582    1.05718 
 H                     0.40682   1.91833   0.92668 
 H                     2.17757   1.48869   1.28846 
 C                     0.86223  -0.14229   0.93266 
 H                     1.61073  -0.9197    1.059 
 C                    -0.51679  -0.57342   0.61677 
 H                    -0.67574  -1.66376   0.53389 
 O                    -1.45842   0.20134   0.4488 
 O                    -3.64388  -1.41282  -0.04692 
 H                    -2.91081  -0.76956  -0.26791 
 H                    -4.40754  -1.27755  -0.67826 
 O                    -1.23392   2.61941  -1.542 
 H                    -0.33868   2.41067  -1.93577 
 H                    -1.47584   1.91657  -0.87304 
 O                    -5.04665  -0.10045   1.40318 
 H                    -4.36345  -0.64788   0.91983 
 H                    -5.46207  -0.6501    2.12798 
 O                    -3.72799  -3.79706  -0.08945 
 H                    -4.62562  -3.91633   0.33493 
 H                    -3.47469  -2.82992  -0.06724 
 O                     2.19      0.5238   -2.40078 
 H                     2.89486   0.99843  -2.92796 
 H                     2.46294  -0.42797  -2.26054 
 O                    -2.19699  -5.25175   1.51478 
 H                    -2.59967  -4.58442   0.88822 
 H                    -2.89747  -5.57772   2.14973 
 O                     0.83778   2.39846  -2.53256 
 H                     1.41386   3.19801  -2.7025 
 H                     1.41101   1.58115  -2.47366 
 O                     3.25585  -1.72244  -2.40477 
 H                     3.39797  -2.41284  -1.69541 
 H                     2.69437  -2.10773  -3.13711 
 O                     6.11879  -0.30147   0.29684 
 H                     5.30691   0.16026  -0.06049 
 H                     6.1761   -1.22184  -0.09003 
 O                    -1.8969    4.77136  -1.62762 
 H                    -1.15156   5.38926  -1.37716 
 H                    -1.60249   3.82444  -1.49833 
 O                     3.86503  -3.98193  -0.86252 
 H                     3.85722  -4.59468  -1.65278 
 H                     3.6909   -4.50877  -0.03055 
 O                     1.12365   5.51206   3.56112 
 H                     2.07544   5.46475   3.86433 
 H                     1.09369   5.77744   2.59742 
 O                     6.14629  -0.43128   2.79668 
 H                     5.99821  -0.38953   1.80855 
 H                     6.9643    0.09297   3.03353 
 O                    -6.20027   0.89464  -0.24376 
 H                    -5.9959    1.86721  -0.1324 
 H                    -5.80929   0.38226   0.52085 
 
 NAtoms=     50 NQM=       50 NQMF=       0 NMMI=      0 NMMIF=      0
                NMic=       0 NMicF=      0.
                    Isotopes and Nuclear Properties:
 (Nuclear quadrupole moments (NQMom) in fm**2, nuclear magnetic moments (NMagM)
  in nuclear magnetons)

  Atom         1           2           3           4           5           6           7           8           9          10
 IAtWgt=          12           1           1          12           1          12           1          16          16           1
 AtmWgt=  12.0000000   1.0078250   1.0078250  12.0000000   1.0078250  12.0000000   1.0078250  15.9949146  15.9949146   1.0078250
 NucSpn=           0           1           1           0           1           0           1           0           0           1
 AtZEff=   0.0000000   0.0000000   0.0000000   0.0000000   0.0000000   0.0000000   0.0000000   0.0000000   0.0000000   0.0000000
 NQMom=    0.0000000   0.0000000   0.0000000   0.0000000   0.0000000   0.0000000   0.0000000   0.0000000   0.0000000   0.0000000
 NMagM=    0.0000000   2.7928460   2.7928460   0.0000000   2.7928460   0.0000000   2.7928460   0.0000000   0.0000000   2.7928460
 AtZNuc=   6.0000000   1.0000000   1.0000000   6.0000000   1.0000000   6.0000000   1.0000000   8.0000000   8.0000000   1.0000000

  Atom        11          12          13          14          15          16          17          18          19          20
 IAtWgt=           1          16           1           1          16           1           1          16           1           1
 AtmWgt=   1.0078250  15.9949146   1.0078250   1.0078250  15.9949146   1.0078250   1.0078250  15.9949146   1.0078250   1.0078250
 NucSpn=           1           0           1           1           0           1           1           0           1           1
 AtZEff=   0.0000000   0.0000000   0.0000000   0.0000000   0.0000000   0.0000000   0.0000000   0.0000000   0.0000000   0.0000000
 NQMom=    0.0000000   0.0000000   0.0000000   0.0000000   0.0000000   0.0000000   0.0000000   0.0000000   0.0000000   0.0000000
 NMagM=    2.7928460   0.0000000   2.7928460   2.7928460   0.0000000   2.7928460   2.7928460   0.0000000   2.7928460   2.7928460
 AtZNuc=   1.0000000   8.0000000   1.0000000   1.0000000   8.0000000   1.0000000   1.0000000   8.0000000   1.0000000   1.0000000

  Atom        21          22          23          24          25          26          27          28          29          30
 IAtWgt=          16           1           1          16           1           1          16           1           1          16
 AtmWgt=  15.9949146   1.0078250   1.0078250  15.9949146   1.0078250   1.0078250  15.9949146   1.0078250   1.0078250  15.9949146
 NucSpn=           0           1           1           0           1           1           0           1           1           0
 AtZEff=   0.0000000   0.0000000   0.0000000   0.0000000   0.0000000   0.0000000   0.0000000   0.0000000   0.0000000   0.0000000
 NQMom=    0.0000000   0.0000000   0.0000000   0.0000000   0.0000000   0.0000000   0.0000000   0.0000000   0.0000000   0.0000000
 NMagM=    0.0000000   2.7928460   2.7928460   0.0000000   2.7928460   2.7928460   0.0000000   2.7928460   2.7928460   0.0000000
 AtZNuc=   8.0000000   1.0000000   1.0000000   8.0000000   1.0000000   1.0000000   8.0000000   1.0000000   1.0000000   8.0000000

  Atom        31          32          33          34          35          36          37          38          39          40
 IAtWgt=           1           1          16           1           1          16           1           1          16           1
 AtmWgt=   1.0078250   1.0078250  15.9949146   1.0078250   1.0078250  15.9949146   1.0078250   1.0078250  15.9949146   1.0078250
 NucSpn=           1           1           0           1           1           0           1           1           0           1
 AtZEff=   0.0000000   0.0000000   0.0000000   0.0000000   0.0000000   0.0000000   0.0000000   0.0000000   0.0000000   0.0000000
 NQMom=    0.0000000   0.0000000   0.0000000   0.0000000   0.0000000   0.0000000   0.0000000   0.0000000   0.0000000   0.0000000
 NMagM=    2.7928460   2.7928460   0.0000000   2.7928460   2.7928460   0.0000000   2.7928460   2.7928460   0.0000000   2.7928460
 AtZNuc=   1.0000000   1.0000000   8.0000000   1.0000000   1.0000000   8.0000000   1.0000000   1.0000000   8.0000000   1.0000000

  Atom        41          42          43          44          45          46          47          48          49          50
 IAtWgt=           1          16           1           1          16           1           1          16           1           1
 AtmWgt=   1.0078250  15.9949146   1.0078250   1.0078250  15.9949146   1.0078250   1.0078250  15.9949146   1.0078250   1.0078250
 NucSpn=           1           0           1           1           0           1           1           0           1           1
 AtZEff=   0.0000000   0.0000000   0.0000000   0.0000000   0.0000000   0.0000000   0.0000000   0.0000000   0.0000000   0.0000000
 NQMom=    0.0000000   0.0000000   0.0000000   0.0000000   0.0000000   0.0000000   0.0000000   0.0000000   0.0000000   0.0000000
 NMagM=    2.7928460   0.0000000   2.7928460   2.7928460   0.0000000   2.7928460   2.7928460   0.0000000   2.7928460   2.7928460
 AtZNuc=   1.0000000   8.0000000   1.0000000   1.0000000   8.0000000   1.0000000   1.0000000   8.0000000   1.0000000   1.0000000
 Leave Link  101 at Mon Sep 24 16:08:24 2018, MaxMem=    33554432 cpu:         2.0
 (Enter /home/mateus/GaussianApps/g09/l202.exe)
                          Input orientation:                          
 ---------------------------------------------------------------------
 Center     Atomic      Atomic             Coordinates (Angstroms)
 Number     Number       Type             X           Y           Z
 ---------------------------------------------------------------------
      1          6           0        1.171069    1.158204    1.057182
      2          1           0        0.406823    1.918334    0.926676
      3          1           0        2.177566    1.488686    1.288461
      4          6           0        0.862232   -0.142291    0.932663
      5          1           0        1.610734   -0.919702    1.059000
      6          6           0       -0.516788   -0.573423    0.616767
      7          1           0       -0.675736   -1.663762    0.533893
      8          8           0       -1.458415    0.201338    0.448795
      9          8           0       -3.643882   -1.412822   -0.046919
     10          1           0       -2.910809   -0.769555   -0.267912
     11          1           0       -4.407538   -1.277554   -0.678255
     12          8           0       -1.233920    2.619406   -1.542003
     13          1           0       -0.338678    2.410666   -1.935773
     14          1           0       -1.475842    1.916565   -0.873044
     15          8           0       -5.046653   -0.100454    1.403175
     16          1           0       -4.363452   -0.647875    0.919826
     17          1           0       -5.462074   -0.650097    2.127977
     18          8           0       -3.727992   -3.797061   -0.089452
     19          1           0       -4.625617   -3.916331    0.334928
     20          1           0       -3.474692   -2.829921   -0.067237
     21          8           0        2.189998    0.523798   -2.400779
     22          1           0        2.894855    0.998432   -2.927960
     23          1           0        2.462943   -0.427970   -2.260542
     24          8           0       -2.196992   -5.251749    1.514776
     25          1           0       -2.599667   -4.584424    0.888216
     26          1           0       -2.897468   -5.577721    2.149728
     27          8           0        0.837781    2.398464   -2.532559
     28          1           0        1.413859    3.198010   -2.702498
     29          1           0        1.411007    1.581150   -2.473656
     30          8           0        3.255849   -1.722438   -2.404767
     31          1           0        3.397965   -2.412839   -1.695405
     32          1           0        2.694371   -2.107734   -3.137114
     33          8           0        6.118786   -0.301473    0.296836
     34          1           0        5.306907    0.160264   -0.060491
     35          1           0        6.176096   -1.221844   -0.090032
     36          8           0       -1.896902    4.771355   -1.627620
     37          1           0       -1.151562    5.389258   -1.377161
     38          1           0       -1.602488    3.824438   -1.498327
     39          8           0        3.865025   -3.981926   -0.862520
     40          1           0        3.857224   -4.594680   -1.652783
     41          1           0        3.690897   -4.508770   -0.030551
     42          8           0        1.123649    5.512064    3.561121
     43          1           0        2.075441    5.464754    3.864329
     44          1           0        1.093690    5.777443    2.597416
     45          8           0        6.146287   -0.431278    2.796684
     46          1           0        5.998207   -0.389532    1.808546
     47          1           0        6.964297    0.092971    3.033528
     48          8           0       -6.200266    0.894643   -0.243756
     49          1           0       -5.995900    1.867209   -0.132396
     50          1           0       -5.809285    0.382255    0.520848
 ---------------------------------------------------------------------
                    Distance matrix (angstroms):
                    1          2          3          4          5
     1  C    0.000000
     2  H    1.085772   0.000000
     3  H    1.084318   1.857691   0.000000
     4  C    1.342450   2.110357   2.125272   0.000000
     5  H    2.123912   3.085670   2.484811   1.086547   0.000000
     6  C    2.457918   2.675435   3.458758   1.478973   2.200416
     7  H    3.412918   3.762662   4.318406   2.199827   2.461160
     8  O    2.863549   2.579837   3.947488   2.395331   3.323967
     9  O    5.568929   5.334107   6.640124   4.783189   5.392329
    10  H    4.704663   4.433787   5.780442   4.008825   4.714615
    11  H    6.329733   5.997297   7.408350   5.626220   6.274210
    12  O    3.830776   3.045967   4.574745   4.259671   5.232835
    13  H    3.578516   2.998629   4.192519   4.023394   4.884693
    14  H    3.362592   2.604500   4.266448   3.600841   4.615643
    15  O    6.353267   5.834634   7.397828   5.927736   6.716430
    16  H    5.823376   5.416733   6.890987   5.250100   5.981986
    17  H    6.958099   6.517969   7.977674   6.456275   7.158213
    18  O    7.061885   7.127058   8.044463   5.955856   6.172530
    19  H    7.737837   7.727803   8.741094   6.687088   6.956733
    20  H    6.225155   6.212886   7.241292   5.199237   5.547874
    21  O    3.660353   4.024475   3.813352   3.649448   3.793324
    22  H    4.344919   4.679182   4.305004   4.509680   4.606957
    23  H    3.897715   4.459947   4.043567   3.583357   3.462285
    24  O    7.255393   7.650870   8.038746   5.983667   5.785598
    25  H    6.872029   7.164239   7.737236   5.631986   5.584517
    26  H    7.944768   8.282816   8.742532   6.720156   6.573486
    27  O    3.812554   3.518886   4.150050   4.296952   4.950452
    28  H    4.284268   3.977763   4.408264   4.967524   5.580607
    29  H    3.564165   3.561508   3.840532   3.856736   4.332875
    30  O    4.962811   5.698305   5.011382   4.400535   3.917712
    31  H    5.028732   5.880587   5.061099   4.300241   3.606993
    32  H    5.529821   6.160884   5.725997   4.876760   4.493669
    33  O    5.214277   6.160419   4.440856   5.297261   4.613636
    34  H    4.398890   5.298692   3.657479   4.564321   4.010147
    35  H    5.659596   6.646723   5.023491   5.518015   4.717425
    36  O    5.447519   4.468927   5.990053   6.189652   7.204829
    37  H    5.405780   4.447869   5.779541   6.323661   7.305350
    38  H    4.618663   3.681196   5.245067   5.264931   6.274678
    39  O    6.112576   7.069190   6.115704   5.194444   4.260432
    40  H    6.903261   7.808856   6.962723   5.956364   5.089789
    41  H    6.296609   7.280734   6.324511   5.291055   4.289010
    42  O    5.022754   4.513207   4.739546   6.240902   6.918488
    43  H    5.219611   4.898080   4.738633   6.442476   6.989070
    44  H    4.869874   4.260972   4.613197   6.153716   6.890995
    45  O    5.505008   6.477581   4.659586   5.610644   4.881531
    46  H    5.124578   6.112897   4.288996   5.215989   4.482501
    47  H    6.213063   7.125394   5.282620   6.457877   5.795248
    48  O    7.489892   6.787597   8.537485   7.234506   8.124084
    49  H    7.299536   6.489924   8.304677   7.225401   8.188234
    50  H    7.043798   6.415936   8.099581   6.704765   7.552574
                    6          7          8          9         10
     6  C    0.000000
     7  H    1.104976   0.000000
     8  O    1.230906   2.024457   0.000000
     9  O    3.305115   3.034832   2.761795   0.000000
    10  H    2.559778   2.537331   1.888319   1.000013   0.000000
    11  H    4.160627   3.942690   3.486358   1.000027   1.632986
    12  O    3.920296   4.792332   3.140180   4.929712   3.990028
    13  H    3.930899   4.776382   3.438183   5.395480   4.417174
    14  H    3.056037   3.929171   2.165541   4.058041   3.104924
    15  O    4.621884   4.722764   3.725234   2.406834   2.793216
    16  H    3.859302   3.844505   3.063050   1.427418   1.880346
    17  H    5.171604   5.145644   4.424238   2.935599   3.501929
    18  O    4.604608   3.775684   4.629026   2.386101   3.140928
    19  H    5.304427   4.551397   5.196088   2.716094   3.634031
    20  H    3.782703   3.091187   3.676982   1.427308   2.145540
    21  O    4.199544   4.648672   4.640579   6.582196   5.678038
    22  H    5.164797   5.640995   5.566758   7.541195   6.626263
    23  H    4.144739   4.380337   4.807659   6.569884   5.741469
    24  O    5.051360   4.018707   5.605173   4.389731   4.876225
    25  H    4.527714   3.515298   4.939541   3.467553   3.998333
    26  H    5.749835   4.781850   6.193672   4.767471   5.381786
    27  O    4.537094   5.309947   4.357562   6.386674   5.405266
    28  H    5.382251   6.203020   5.211588   7.341159   6.353860
    29  H    4.231937   4.891759   4.321826   6.356479   5.391587
    30  O    4.968168   4.908821   5.836781   7.298054   6.595590
    31  H    4.904578   4.703820   5.917427   7.301038   6.673736
    32  H    5.172743   5.003102   5.952830   7.085595   6.437475
    33  O    6.648846   6.933798   7.595386   9.831732   9.059339
    34  H    5.908671   6.282705   6.784588   9.087981   8.272753
    35  H    6.761265   6.894358   7.784699   9.821930   9.099893
    36  O    5.958913   6.897399   5.038733   6.617749   5.794696
    37  H    6.319197   7.322816   5.508429   7.365426   6.500489
    38  H    4.999355   5.925295   4.115689   5.805408   4.932585
    39  O    5.745126   5.286054   6.896250   7.978044   7.522288
    40  H    6.360294   5.824050   7.461530   8.304794   7.896564
    41  H    5.797464   5.242151   6.995020   7.961416   7.590823
    42  O    6.956537   7.993396   6.675136   9.148844   8.390297
    43  H    7.329795   8.335258   7.201219   9.762662   8.989144
    44  H    6.844714   7.922154   6.497904   9.007608   8.192027
    45  O    7.012048   7.292410   7.984001  10.241920   9.567506
    46  H    6.625656   6.913025   7.602583   9.872171   9.155690
    47  H    7.889959   8.228268   8.811054  11.148544  10.448023
    48  O    5.932760   6.137638   4.842050   3.449382   3.686552
    49  H    6.044717   6.419957   4.868437   4.037066   4.060625
    50  H    5.378945   5.526272   4.355226   2.869430   3.217137
                   11         12         13         14         15
    11  H    0.000000
    12  O    5.099432   0.000000
    13  H    5.633821   1.000043   0.000000
    14  H    4.339952   1.000009   1.632994   0.000000
    15  O    2.475153   5.532508   6.294388   4.690440   0.000000
    16  H    1.718226   5.150699   5.805853   4.257819   1.000030
    17  H    3.062791   6.483494   7.220216   5.611054   1.000010
    18  O    2.675142   7.035719   7.309735   6.191261   4.199012
    19  H    2.835003   7.598838   7.972755   6.738171   3.984889
    20  H    1.911384   6.073809   6.386686   5.212855   3.476084
    21  O    7.052619   4.105153   3.189154   4.208581   8.199322
    22  H    7.972843   4.647065   3.665321   4.916161   9.112290
    23  H    7.101333   4.844543   4.001551   4.789157   8.362064
    24  O    5.048775   8.498617   8.606522   7.589892   5.888027
    25  H    4.081375   7.724403   7.875168   6.828461   5.134093
    26  H    5.363696   9.142711   9.330222   8.205029   5.931003
    27  O    6.668202   2.306938   1.319226   2.887744   7.507407
    28  H    7.616882   2.948265   2.068614   3.652311   8.335144
    29  H    6.726895   2.990249   2.009680   3.317885   7.717447
    30  O    7.868053   6.305077   5.497557   6.162582   9.277003
    31  H    7.952946   6.841153   6.106265   6.570693   9.287621
    32  H    7.561237   6.349937   5.573019   6.221870   9.196024
    33  O   10.616357   8.122509   7.351128   7.997918  11.221917
    34  H    9.839685   7.143156   6.360316   7.053405  10.459756
    35  H   10.600114   8.471821   7.684020   8.307519  11.377050
    36  O    6.617695   2.253389   2.845325   2.982701   6.545317
    37  H    7.452264   2.775975   3.137648   3.524044   7.282784
    38  H    5.879723   1.260893   1.946105   2.011715   5.973756
    39  O    8.705336   8.368902   7.725815   7.957209   9.980842
    40  H    8.958757   8.830349   8.170713   8.452567  10.431489
    41  H    8.743279   8.794840   8.230792   8.287938   9.891087
    42  O    9.729607   6.321984   6.478651   6.272702   8.615667
    43  H   10.398212   6.948115   6.985457   6.902460   9.367659
    44  H    9.527146   5.703136   5.825519   5.792492   8.583688
    45  O   11.143366   9.088363   8.516312   8.779301  11.284202
    46  H   10.735562   8.519598   7.875097   8.268641  11.056076
    47  H   12.040528   9.722609   9.132311   9.477486  12.122639
    48  O    2.849755   5.415242   6.286451   4.874475   2.243529
    49  H    3.565163   5.022872   5.962523   4.580603   2.670346
    50  H    2.481473   5.494922   6.330638   4.803725   1.262187
                   16         17         18         19         20
    16  H    0.000000
    17  H    1.632974   0.000000
    18  O    3.367466   4.222252   0.000000
    19  H    3.330712   3.818765   1.000027   0.000000
    20  H    2.554508   3.676994   1.000007   1.632989   0.000000
    21  O    7.439553   8.968939   7.683402   8.582042   6.984380
    22  H    8.378473   9.905474   8.655402   9.558181   7.963112
    23  H    7.534107   9.061696   7.375099   8.315817   6.770189
    24  O    5.122809   5.675560   2.652098   3.012242   3.162362
    25  H    4.313740   5.020887   1.687866   2.203849   2.181018
    26  H    5.288209   5.555102   2.979001   3.006695   3.577503
    27  O    6.946364   8.408477   8.074626   8.828807   7.211882
    28  H    7.828754   9.242287   9.066292   9.814024   8.196248
    29  H    7.058941   8.566956   7.811459   8.634308   7.008456
    30  O    8.382204   9.884223   7.644526   8.627665   7.210461
    31  H    8.378193   9.809475   7.434677   8.411933   7.075189
    32  H    8.270599   9.817000   7.306765   8.301104   6.928422
    33  O   10.506447  11.729916  10.455974  11.336262   9.927760
    34  H    9.753459  11.018940   9.863603  10.743836   9.276731
    35  H   10.603364  11.861427  10.233411  11.140819   9.783871
    36  O    6.476218   7.497140   8.895876   9.315222   7.918561
    37  H    7.213831   8.206114   9.627286  10.079399   8.641050
    38  H    5.785496   6.933105   8.036787   8.509973   7.059296
    39  O    9.055412  10.345962   7.634508   8.574916   7.472017
    40  H    9.474972  10.802925   7.785609   8.738978   7.706187
    41  H    8.982331  10.164914   7.453181   8.345595   7.359725
    42  O    8.661961   9.132244  11.114176  11.504652  10.193058
    43  H    9.353805   9.860043  11.622970  12.056766  10.726734
    44  H    8.595314   9.193024  11.051652  11.480356  10.102337
    45  O   10.678208  11.629664  10.824032  11.586188  10.320793
    46  H   10.402910  11.467692  10.479151  11.290505   9.960415
    47  H   11.547055  12.481461  11.798746  12.557191  11.275218
    48  O    2.665928   2.925110   5.305472   5.095082   4.618689
    49  H    3.177689   3.425067   6.101574   5.961996   5.331394
    50  H    1.819556   1.941435   4.708602   4.462452   4.014255
                   21         22         23         24         25
    21  O    0.000000
    22  H    1.000010   0.000000
    23  H    1.000014   1.632978   0.000000
    24  O    8.242220   9.204867   7.696549   0.000000
    25  H    7.736428   8.713280   7.267792   1.000024   0.000000
    26  H    9.155215  10.128164   8.643172   1.000044   1.633015
    27  O    2.315217   2.519521   3.271678   9.171506   8.501675
    28  H    2.800863   2.661264   3.800478  10.110493   9.464032
    29  H    1.315345   1.657636   2.277839   8.695617   8.087150
    30  O    2.486288   2.794133   1.524844   7.586325   7.302176
    31  H    3.252779   3.661841   2.265690   7.047568   6.882040
    32  H    2.778766   3.119648   1.908807   7.446499   7.096768
    33  O    4.836690   4.741602   4.463336   9.754013   9.731640
    34  H    3.914617   3.839648   3.643402   9.385087   9.269629
    35  H    4.927047   4.873398   4.373655   9.429960   9.448700
    36  O    5.944936   6.235926   6.814823  10.508440   9.713594
    37  H    5.990536   6.169102   6.905444  11.076428  10.329728
    38  H    5.107993   5.500569   5.932257   9.581722   8.797665
    39  O    5.047128   5.478251   4.068280   6.634157   6.724606
    40  H    5.434883   5.816797   4.435636   6.864306   6.938892
    41  H    5.761720   6.273590   4.809746   6.132478   6.357755
    42  O    7.846283   8.100507   8.424338  11.448749  11.088128
    43  H    7.979834   8.170353   8.508137  11.773594  11.476056
    44  H    7.333801   7.524156   7.998860  11.560440  11.132409
    45  O    6.601365   6.737019   6.256402   9.720624   9.868261
    46  H    5.749352   5.830242   5.390459   9.533559   9.610805
    47  H    7.246464   7.274583   6.968554  10.714563  10.860469
    48  O    8.671032   9.483509   8.992659   7.542995   6.653259
    49  H    8.599956   9.360314   9.019361   8.235560   7.362039
    50  H    8.517304   9.382750   8.764836   6.765985   5.924906
                   26         27         28         29         30
    26  H    0.000000
    27  O    9.974739   0.000000
    28  H   10.915360   1.000009   0.000000
    29  H    9.549244   1.000030   1.632977   0.000000
    30  O    8.571461   4.779667   5.262355   3.784426   0.000000
    31  H    8.027079   5.513983   6.035937   4.528314   1.000022
    32  H    8.441574   4.911032   5.475356   3.961700   1.000021
    33  O   10.609658   6.571465   6.586253   5.777809   4.184998
    34  H   10.252868   5.576177   5.600350   4.797949   3.639648
    35  H   10.311147   6.897114   7.002784   6.020342   3.759845
    36  O   11.062227   3.732026   3.819937   4.672841   8.326112
    37  H   11.651685   3.773232   3.624841   4.719189   8.429559
    38  H   10.167884   3.009643   3.307686   3.881335   7.429193
    39  O    7.573078   7.256901   7.806742   6.290133   2.802661
    40  H    7.813535   7.667797   8.233951   6.693182   3.029341
    41  H    7.021597   7.881002   8.468687   6.946495   3.686437
    42  O   11.880435   6.849026   6.683711   7.207856   9.616450
    43  H   12.231350   7.200980   6.978469   7.462835   9.609925
    44  H   12.044481   6.148141   5.902971   6.589790   9.270652
    45  O   10.425638   8.036697   8.112251   7.365407   6.089074
    46  H   10.303725   7.297130   7.364525   6.577480   5.200882
    47  H   11.410182   8.592486   8.564498   7.961330   6.828129
    48  O    7.650408   7.552099   8.326212   7.960856  10.046750
    49  H    8.380654   7.262383   7.954935   7.773390  10.180574
    50  H    6.830318   7.587614   8.395966   7.908035   9.755286
                   31         32         33         34         35
    31  H    0.000000
    32  H    1.632991   0.000000
    33  O    3.978663   5.175056   0.000000
    34  H    3.596924   4.629770   1.000016   0.000000
    35  H    3.422529   4.710830   1.000017   1.632968   0.000000
    36  O    8.924845   8.407153   9.679275   8.695569  10.171328
    37  H    9.037267   8.607760   9.383211   8.413550   9.952786
    38  H    7.996686   7.505950   8.936656   7.951936   9.378413
    39  O    1.836811   3.171246   4.468700   4.458701   3.681826
    40  H    2.230060   3.120956   5.229465   5.219815   4.381253
    41  H    2.692671   4.050774   4.868591   4.940877   4.121121
    42  O    9.777917  10.266199   8.330916   7.697888   9.176255
    43  H    9.732224  10.331788   7.894620   7.347394   8.784244
    44  H    9.529885   9.880437   8.215685   7.507887   9.057773
    45  O    5.626608   7.066554   2.503367   3.036104   2.993161
    46  H    4.809647   6.190889   1.519066   2.067237   2.080622
    47  H    6.431222   7.819987   2.891359   3.510616   3.479458
    48  O   10.255377   9.823459  12.388784  11.532039  12.556970
    49  H   10.440618  10.017450  12.314749  11.431198  12.557927
    50  H    9.874096   9.586078  11.949751  11.133596  12.107670
                   36         37         38         39         40
    36  O    0.000000
    37  H    1.000033   0.000000
    38  H    1.000024   1.632996   0.000000
    39  O   10.507384  10.641903   9.551820   0.000000
    40  H   10.992416  11.173313  10.035630   1.000022   0.000000
    41  H   10.949651  11.101069   9.980814   1.000029   1.632998
    42  O    6.049414   5.438593   5.989818  10.826800  11.696303
    43  H    6.813356   6.155686   6.706406  10.713798  11.610577
    44  H    5.273214   4.581387   5.278136  10.718990  11.544793
    45  O   10.551528  10.225371   9.828619   5.585788   6.509338
    46  H   10.038662   9.729457   9.298576   4.958866   5.852169
    47  H   11.051444  10.647629  10.385151   6.433464   7.320484
    48  O    5.955075   6.853874   5.594391  11.201512  11.544312
    49  H    5.241330   6.117343   4.999858  11.488399  11.880726
    50  H    6.259940   7.096964   5.798520  10.702899  11.087649
                   41         42         43         44         45
    41  H    0.000000
    42  O   10.950250   0.000000
    43  H   10.828249   1.000041   0.000000
    44  H   10.929679   1.000025   1.632997   0.000000
    45  O    5.536076   7.818860   7.243952   8.007288   0.000000
    46  H    5.066960   7.852495   7.340777   7.918850   1.000044
    47  H    6.424932   7.984866   7.310759   8.183364   1.000036
    48  O   11.272863   9.457135  10.307745   9.225822  12.784354
    49  H   11.597306   8.809938   9.698592   8.544243  12.700207
    50  H   10.699515   9.144604   9.958894   9.003958  12.197416
                   46         47         48         49         50
    46  H    0.000000
    47  H    1.633009   0.000000
    48  O   12.436390  13.590033   0.000000
    49  H   12.357942  13.458741   1.000026   0.000000
    50  H   11.902550  13.021584   1.000013   1.632985   0.000000
 Stoichiometry    C3H32O15
 Framework group  C1[X(C3H32O15)]
 Deg. of freedom   144
 Full point group                 C1      NOp   1
 Largest Abelian subgroup         C1      NOp   1
 Largest concise Abelian subgroup C1      NOp   1
                         Standard orientation:                         
 ---------------------------------------------------------------------
 Center     Atomic      Atomic             Coordinates (Angstroms)
 Number     Number       Type             X           Y           Z
 ---------------------------------------------------------------------
      1          6           0        1.171069    1.158204    1.057182
      2          1           0        0.406823    1.918334    0.926676
      3          1           0        2.177566    1.488686    1.288461
      4          6           0        0.862232   -0.142291    0.932663
      5          1           0        1.610734   -0.919702    1.059000
      6          6           0       -0.516788   -0.573423    0.616767
      7          1           0       -0.675736   -1.663762    0.533893
      8          8           0       -1.458415    0.201338    0.448795
      9          8           0       -3.643882   -1.412822   -0.046919
     10          1           0       -2.910809   -0.769555   -0.267912
     11          1           0       -4.407538   -1.277554   -0.678255
     12          8           0       -1.233920    2.619406   -1.542003
     13          1           0       -0.338678    2.410666   -1.935773
     14          1           0       -1.475842    1.916565   -0.873044
     15          8           0       -5.046653   -0.100454    1.403175
     16          1           0       -4.363452   -0.647875    0.919826
     17          1           0       -5.462074   -0.650097    2.127977
     18          8           0       -3.727992   -3.797061   -0.089452
     19          1           0       -4.625617   -3.916331    0.334928
     20          1           0       -3.474692   -2.829921   -0.067237
     21          8           0        2.189998    0.523798   -2.400779
     22          1           0        2.894855    0.998432   -2.927960
     23          1           0        2.462943   -0.427970   -2.260542
     24          8           0       -2.196992   -5.251749    1.514776
     25          1           0       -2.599667   -4.584424    0.888216
     26          1           0       -2.897468   -5.577721    2.149728
     27          8           0        0.837781    2.398464   -2.532559
     28          1           0        1.413859    3.198010   -2.702498
     29          1           0        1.411007    1.581150   -2.473656
     30          8           0        3.255849   -1.722438   -2.404767
     31          1           0        3.397965   -2.412839   -1.695405
     32          1           0        2.694371   -2.107734   -3.137114
     33          8           0        6.118786   -0.301473    0.296836
     34          1           0        5.306907    0.160264   -0.060491
     35          1           0        6.176096   -1.221844   -0.090032
     36          8           0       -1.896902    4.771355   -1.627620
     37          1           0       -1.151562    5.389258   -1.377161
     38          1           0       -1.602488    3.824438   -1.498327
     39          8           0        3.865025   -3.981926   -0.862520
     40          1           0        3.857224   -4.594680   -1.652783
     41          1           0        3.690897   -4.508770   -0.030551
     42          8           0        1.123649    5.512064    3.561121
     43          1           0        2.075441    5.464754    3.864329
     44          1           0        1.093690    5.777443    2.597416
     45          8           0        6.146287   -0.431278    2.796684
     46          1           0        5.998207   -0.389532    1.808546
     47          1           0        6.964297    0.092971    3.033528
     48          8           0       -6.200266    0.894643   -0.243756
     49          1           0       -5.995900    1.867209   -0.132396
     50          1           0       -5.809285    0.382255    0.520848
 ---------------------------------------------------------------------
 Rotational constants (GHZ):      0.1536888      0.1065143      0.0813838
 Leave Link  202 at Mon Sep 24 16:08:24 2018, MaxMem=    33554432 cpu:         0.8
 (Enter /home/mateus/GaussianApps/g09/l301.exe)
 Standard basis: CC-pVDZ (5D, 7F)
 Ernie: Thresh=  0.10000D-02 Tol=  0.10000D-05 Strict=F.
 Ernie:  36 primitive shells out of 556 were deleted.
 There are   430 symmetry adapted cartesian basis functions of A   symmetry.
 There are   412 symmetry adapted basis functions of A   symmetry.
   412 basis functions,   818 primitive gaussians,   430 cartesian basis functions
    85 alpha electrons       85 beta electrons
       nuclear repulsion energy      1491.1649310778 Hartrees.
 IExCor=  402 DFT=T Ex+Corr=B3LYP ExCW=0 ScaHFX=  0.200000
 ScaDFX=  0.800000  0.720000  1.000000  0.810000 ScalE2=  1.000000  1.000000
 IRadAn=      0 IRanWt=     -1 IRanGd=            0 ICorTp=0 IEmpDi=  4
 NAtoms=   50 NActive=   50 NUniq=   50 SFac= 1.00D+00 NAtFMM=   60 NAOKFM=F Big=F
 Integral buffers will be    131072 words long.
 Regular integral format.
 Two-electron integral symmetry is turned on.
 ------------------------------------------------------------------------------
 Polarizable Continuum Model (PCM)
 =================================
 Model                : PCM (using non-symmetric T matrix).
 Atomic radii         : UFF (Universal Force Field).
 Polarization charges : Total charges.
 Charge compensation  : None.
 Solution method      : On-the-fly selection.
 Cavity type          : Scaled VdW (van der Waals Surface) (Alpha=1.100).
 Cavity algorithm     : GePol (No added spheres)
                        Default sphere list used, NSphG=   50.
                        Lebedev-Laikov grids with approx.  5.0 points / Ang**2.
                        Smoothing algorithm: Karplus/York (Gamma=1.0000).
                        Polarization charges: spherical gaussians, with
                                              point-specific exponents (IZeta= 3).
                        Self-potential: point-specific (ISelfS= 7).
                        Self-field    : sphere-specific E.n sum rule (ISelfD= 2).
 Solvent              : Water, Eps=  78.355300 Eps(inf)=   1.777849
 ------------------------------------------------------------------------------
 Separa: There are  3 disjoint cavities,
 GePol: Number of generator spheres                  =      50
 GePol: Total number of spheres                      =      50
 GePol: Number of exposed spheres                    =      50 (100.00%)
 GePol: Number of points                             =    4847
 GePol: Average weight of points                     =       0.13
 GePol: Minimum weight of points                     =   0.24D-10
 GePol: Maximum weight of points                     =    0.20577
 GePol: Number of points with low weight             =     274
 GePol: Fraction of low-weight points (<1% of avg)   =       5.65%
 Leave Link  301 at Mon Sep 24 16:08:25 2018, MaxMem=    33554432 cpu:         0.5
 (Enter /home/mateus/GaussianApps/g09/l302.exe)
 NPDir=0 NMtPBC=     1 NCelOv=     1 NCel=       1 NClECP=     1 NCelD=      1
         NCelK=      1 NCelE2=     1 NClLst=     1 CellRange=     0.0.
 One-electron integrals computed using PRISM.
 PrsmSu:  requested number of processors reduced to:   8 ShMem   1 Linda.
 NBasis=   412 RedAO= T EigKep=  2.77D-03  NBF=   412
 NBsUse=   412 1.00D-06 EigRej= -1.00D+00 NBFU=   412
 Precomputing XC quadrature grid using
 IXCGrd= 4 IRadAn=           0 IRanWt=          -1 IRanGd=           0 AccXCQ= 0.00D+00.
 Generated NRdTot=       0 NPtTot=           0 NUsed=           0 NTot=          32
 NSgBfM=   418   418   418   418   418 MxSgAt=    50 MxSgA2=    50.
 Leave Link  302 at Mon Sep 24 16:08:31 2018, MaxMem=    33554432 cpu:        27.6
 (Enter /home/mateus/GaussianApps/g09/l308.exe)
 Leave Link  308 at Mon Sep 24 16:08:31 2018, MaxMem=    33554432 cpu:         3.7
 (Enter /home/mateus/GaussianApps/g09/l303.exe)
 DipDrv:  MaxL=1.
 Leave Link  303 at Mon Sep 24 16:08:32 2018, MaxMem=    33554432 cpu:         3.1
 (Enter /home/mateus/GaussianApps/g09/l401.exe)
 ExpMin= 1.22D-01 ExpMax= 1.17D+04 ExpMxC= 4.01D+02 IAcc=1 IRadAn=         1 AccDes= 0.00D+00
 Harris functional with IExCor=  402 and IRadAn=       1 diagonalized for initial guess.
 HarFok:  IExCor=  402 AccDes= 0.00D+00 IRadAn=         1 IDoV= 1 UseB2=F ITyADJ=14
 ICtDFT=  3500011 ScaDFX=  1.000000  1.000000  1.000000  1.000000
 FoFCou: FMM=F IPFlag=           0 FMFlag=      100000 FMFlg1=           0
         NFxFlg=           0 DoJE=T BraDBF=F KetDBF=T FulRan=T
         wScrn=  0.000000 ICntrl=     500 IOpCl=  0 I1Cent=   200000004 NGrid=           0
         NMat0=    1 NMatS0=      1 NMatT0=    0 NMatD0=    1 NMtDS0=    0 NMtDT0=    0
 Petite list used in FoFCou.
 Harris En= -1262.29293335107    
 JPrj=0 DoOrth=F DoCkMO=F.
 Leave Link  401 at Mon Sep 24 16:08:39 2018, MaxMem=    33554432 cpu:        31.3
 (Enter /home/mateus/GaussianApps/g09/l502.exe)
 Closed shell SCF:
 Using DIIS extrapolation, IDIIS=  1040.
 Integral symmetry usage will be decided dynamically.
 IVT=      580846 IEndB=      580846 NGot=    33554432 MDV=    33175557
 LenX=    33175557 LenY=    32990216
 Requested convergence on RMS density matrix=1.00D-08 within 128 cycles.
 Requested convergence on MAX density matrix=1.00D-06.
 Requested convergence on             energy=1.00D-06.
 No special actions if energy rises.
 Fock matrices will be formed incrementally for  20 cycles.

 Cycle   1  Pass 1  IDiag  1:
 FoFJK:  IHMeth= 1 ICntrl=       0 DoSepK=F KAlg= 0 I1Cent=   0 FoldK=F
 IRaf= 580000000 NMat=   1 IRICut=       1 DoRegI=T DoRafI=F ISym2E= 0.
 FoFCou: FMM=F IPFlag=           0 FMFlag=      100000 FMFlg1=           0
         NFxFlg=           0 DoJE=F BraDBF=F KetDBF=F FulRan=T
         wScrn=  0.000000 ICntrl=       0 IOpCl=  0 I1Cent=           0 NGrid=           0
         NMat0=    1 NMatS0=      1 NMatT0=    0 NMatD0=    1 NMtDS0=    0 NMtDT0=    0
 Symmetry not used in FoFCou.
