 Entering Gaussian System, Link 0=g09
 Input=Acroleina_water_15_15c.gjf
 Output=Acroleina_water_15_15c.log
 Initial command:
 /usr/local/pacerepov1/gaussian/G09D01LINDA/g09/l1.exe /nv/hp18/holiveira7/scratch/22411817/Gau-16953.inp -scrdir=/nv/hp18/holiveira7/scratch/22411817/
 Entering Link 1 = /usr/local/pacerepov1/gaussian/G09D01LINDA/g09/l1.exe PID=     16954.
  
 Copyright (c) 1988,1990,1992,1993,1995,1998,2003,2009,2013,
            Gaussian, Inc.  All Rights Reserved.
  
 This is part of the Gaussian(R) 09 program.  It is based on
 the Gaussian(R) 03 system (copyright 2003, Gaussian, Inc.),
 the Gaussian(R) 98 system (copyright 1998, Gaussian, Inc.),
 the Gaussian(R) 94 system (copyright 1995, Gaussian, Inc.),
 the Gaussian 92(TM) system (copyright 1992, Gaussian, Inc.),
 the Gaussian 90(TM) system (copyright 1990, Gaussian, Inc.),
 the Gaussian 88(TM) system (copyright 1988, Gaussian, Inc.),
 the Gaussian 86(TM) system (copyright 1986, Carnegie Mellon
 University), and the Gaussian 82(TM) system (copyright 1983,
 Carnegie Mellon University). Gaussian is a federally registered
 trademark of Gaussian, Inc.
  
 This software contains proprietary and confidential information,
 including trade secrets, belonging to Gaussian, Inc.
  
 This software is provided under written license and may be
 used, copied, transmitted, or stored only in accord with that
 written license.
  
 The following legend is applicable only to US Government
 contracts under FAR:
  
                    RESTRICTED RIGHTS LEGEND
  
 Use, reproduction and disclosure by the US Government is
 subject to restrictions as set forth in subparagraphs (a)
 and (c) of the Commercial Computer Software - Restricted
 Rights clause in FAR 52.227-19.
  
 Gaussian, Inc.
 340 Quinnipiac St., Bldg. 40, Wallingford CT 06492
  
  
 ---------------------------------------------------------------
 Warning -- This program may not be used in any manner that
 competes with the business of Gaussian, Inc. or will provide
 assistance to any competitor of Gaussian, Inc.  The licensee
 of this program is prohibited from giving any competitor of
 Gaussian, Inc. access to this program.  By using this program,
 the user acknowledges that Gaussian, Inc. is engaged in the
 business of creating and licensing software in the field of
 computational chemistry and represents and warrants to the
 licensee that it is not a competitor of Gaussian, Inc. and that
 it will not use this program in any manner prohibited above.
 ---------------------------------------------------------------
  

 Cite this work as:
 Gaussian 09, Revision D.01,
 M. J. Frisch, G. W. Trucks, H. B. Schlegel, G. E. Scuseria, 
 M. A. Robb, J. R. Cheeseman, G. Scalmani, V. Barone, B. Mennucci, 
 G. A. Petersson, H. Nakatsuji, M. Caricato, X. Li, H. P. Hratchian, 
 A. F. Izmaylov, J. Bloino, G. Zheng, J. L. Sonnenberg, M. Hada, 
 M. Ehara, K. Toyota, R. Fukuda, J. Hasegawa, M. Ishida, T. Nakajima, 
 Y. Honda, O. Kitao, H. Nakai, T. Vreven, J. A. Montgomery, Jr., 
 J. E. Peralta, F. Ogliaro, M. Bearpark, J. J. Heyd, E. Brothers, 
 K. N. Kudin, V. N. Staroverov, T. Keith, R. Kobayashi, J. Normand, 
 K. Raghavachari, A. Rendell, J. C. Burant, S. S. Iyengar, J. Tomasi, 
 M. Cossi, N. Rega, J. M. Millam, M. Klene, J. E. Knox, J. B. Cross, 
 V. Bakken, C. Adamo, J. Jaramillo, R. Gomperts, R. E. Stratmann, 
 O. Yazyev, A. J. Austin, R. Cammi, C. Pomelli, J. W. Ochterski, 
 R. L. Martin, K. Morokuma, V. G. Zakrzewski, G. A. Voth, 
 P. Salvador, J. J. Dannenberg, S. Dapprich, A. D. Daniels, 
 O. Farkas, J. B. Foresman, J. V. Ortiz, J. Cioslowski, 
 and D. J. Fox, Gaussian, Inc., Wallingford CT, 2013.
 
 ******************************************
 Gaussian 09:  EM64L-G09RevD.01 24-Apr-2013
                14-Sep-2018 
 ******************************************
 %chk=Acrolina_Din_15.chk
 %nprocshared=10
 Will use up to   10 processors via shared memory.
 -------------------------------------------
 #p td=(nstates=15)/6-31+g(d) lc-wpbe charge
 -------------------------------------------
 1/18=10,28=-2,38=1,125=101/1;
 2/12=2,17=6,18=5,40=1/2;
 3/5=1,6=6,7=11,11=9,16=1,25=1,30=1,74=-41/1,2,8,3;
 4//1;
 5/5=2,38=5/2;
 8/6=1,10=2,108=15/1;
 9/41=15,42=1,70=2/14;
 6/7=2,8=2,9=2,10=2/1;
 99/5=1,9=1/99;
 Leave Link    1 at Fri Sep 14 16:31:42 2018, MaxMem=           0 cpu:         6.0
 (Enter /usr/local/pacerepov1/gaussian/G09D01LINDA/g09/l101.exe)
 ------------------
 Acroleina in Water
 ------------------
 Symbolic Z-matrix:
 Charge =  0 Multiplicity = 1
 C                     0.48515   0.48044  -1.43014 
 H                     1.4614    0.18777  -1.05573 
 H                     0.42924   0.87885  -2.43706 
 C                    -0.60513   0.34656  -0.65843 
 H                    -1.59169   0.63289  -1.01241 
 C                    -0.50852  -0.19911   0.7128 
 H                    -1.45849  -0.27211   1.27244 
 O                     0.54488  -0.56132   1.23652 
 O                    -0.85418  -1.51654   3.44754 
 H                    -0.69757  -0.85318   2.7158 
 H                    -0.28104  -1.28661   4.23411 
 O                     2.51163   1.16204   1.41754 
 H                     2.13659   1.89424   0.84892 
 H                     1.76365   0.66785   1.86063 
 O                     0.46214  -3.42335   2.99628 
 H                    -0.20359  -2.67722   2.98338 
 H                     0.04189  -4.23807   3.3958 
 O                    -0.30955   4.09687   0.1146 
 H                     0.26906   4.78417  -0.32453 
 H                    -1.26961   4.36096   0.0219 
 O                     1.71685   2.87782   0.165 
 H                     2.39704   3.18007  -0.50282 
 H                     0.84589   3.33459  -0.0163 
 O                     3.64207  -1.33047  -4.28217 
 H                     3.06803  -0.84618  -4.9425 
 H                     4.50191  -0.83443  -4.16116 
 O                    -2.8623    4.54934   1.64989 
 H                    -3.7561    4.15931   1.87141 
 H                    -2.14154   3.94406   1.98783 
 O                    -3.23066  -2.03821   3.85121 
 H                    -3.07564  -2.63442   4.63896 
 H                    -2.35584  -1.82933   3.41406 
 O                    -2.40892   3.36787  -4.04355 
 H                    -1.84271   3.58096  -3.24731 
 H                    -3.37474   3.42734  -3.7912 
 O                    -2.91321   4.30367  -0.65955 
 H                    -3.75268   3.95089  -1.07295 
 H                    -3.05147   4.42562   0.32332 
 O                     4.50432  -3.40336  -3.61693 
 H                     5.1556   -3.15239  -2.90075 
 H                     3.99551  -2.59173  -3.90403 
 O                     2.29995  -0.40997  -5.9729 
 H                     2.53755   0.20036  -6.7286 
 H                     1.48651  -0.06211  -5.50672 
 O                     4.79211   1.1513    0.74261 
 H                     4.90866   1.29405  -0.24029 
 H                     3.81684   1.12196   0.96178 
 O                     5.20855   1.46334  -1.73633 
 H                     5.22851   2.29172  -2.29622 
 H                     5.0152    0.67281  -2.3175 
 
 NAtoms=     50 NQM=       50 NQMF=       0 NMMI=      0 NMMIF=      0
                NMic=       0 NMicF=      0.
                    Isotopes and Nuclear Properties:
 (Nuclear quadrupole moments (NQMom) in fm**2, nuclear magnetic moments (NMagM)
  in nuclear magnetons)

  Atom         1           2           3           4           5           6           7           8           9          10
 IAtWgt=          12           1           1          12           1          12           1          16          16           1
 AtmWgt=  12.0000000   1.0078250   1.0078250  12.0000000   1.0078250  12.0000000   1.0078250  15.9949146  15.9949146   1.0078250
 NucSpn=           0           1           1           0           1           0           1           0           0           1
 AtZEff=   0.0000000   0.0000000   0.0000000   0.0000000   0.0000000   0.0000000   0.0000000   0.0000000   0.0000000   0.0000000
 NQMom=    0.0000000   0.0000000   0.0000000   0.0000000   0.0000000   0.0000000   0.0000000   0.0000000   0.0000000   0.0000000
 NMagM=    0.0000000   2.7928460   2.7928460   0.0000000   2.7928460   0.0000000   2.7928460   0.0000000   0.0000000   2.7928460
 AtZNuc=   6.0000000   1.0000000   1.0000000   6.0000000   1.0000000   6.0000000   1.0000000   8.0000000   8.0000000   1.0000000

  Atom        11          12          13          14          15          16          17          18          19          20
 IAtWgt=           1          16           1           1          16           1           1          16           1           1
 AtmWgt=   1.0078250  15.9949146   1.0078250   1.0078250  15.9949146   1.0078250   1.0078250  15.9949146   1.0078250   1.0078250
 NucSpn=           1           0           1           1           0           1           1           0           1           1
 AtZEff=   0.0000000   0.0000000   0.0000000   0.0000000   0.0000000   0.0000000   0.0000000   0.0000000   0.0000000   0.0000000
 NQMom=    0.0000000   0.0000000   0.0000000   0.0000000   0.0000000   0.0000000   0.0000000   0.0000000   0.0000000   0.0000000
 NMagM=    2.7928460   0.0000000   2.7928460   2.7928460   0.0000000   2.7928460   2.7928460   0.0000000   2.7928460   2.7928460
 AtZNuc=   1.0000000   8.0000000   1.0000000   1.0000000   8.0000000   1.0000000   1.0000000   8.0000000   1.0000000   1.0000000

  Atom        21          22          23          24          25          26          27          28          29          30
 IAtWgt=          16           1           1          16           1           1          16           1           1          16
 AtmWgt=  15.9949146   1.0078250   1.0078250  15.9949146   1.0078250   1.0078250  15.9949146   1.0078250   1.0078250  15.9949146
 NucSpn=           0           1           1           0           1           1           0           1           1           0
 AtZEff=   0.0000000   0.0000000   0.0000000   0.0000000   0.0000000   0.0000000   0.0000000   0.0000000   0.0000000   0.0000000
 NQMom=    0.0000000   0.0000000   0.0000000   0.0000000   0.0000000   0.0000000   0.0000000   0.0000000   0.0000000   0.0000000
 NMagM=    0.0000000   2.7928460   2.7928460   0.0000000   2.7928460   2.7928460   0.0000000   2.7928460   2.7928460   0.0000000
 AtZNuc=   8.0000000   1.0000000   1.0000000   8.0000000   1.0000000   1.0000000   8.0000000   1.0000000   1.0000000   8.0000000

  Atom        31          32          33          34          35          36          37          38          39          40
 IAtWgt=           1           1          16           1           1          16           1           1          16           1
 AtmWgt=   1.0078250   1.0078250  15.9949146   1.0078250   1.0078250  15.9949146   1.0078250   1.0078250  15.9949146   1.0078250
 NucSpn=           1           1           0           1           1           0           1           1           0           1
 AtZEff=   0.0000000   0.0000000   0.0000000   0.0000000   0.0000000   0.0000000   0.0000000   0.0000000   0.0000000   0.0000000
 NQMom=    0.0000000   0.0000000   0.0000000   0.0000000   0.0000000   0.0000000   0.0000000   0.0000000   0.0000000   0.0000000
 NMagM=    2.7928460   2.7928460   0.0000000   2.7928460   2.7928460   0.0000000   2.7928460   2.7928460   0.0000000   2.7928460
 AtZNuc=   1.0000000   1.0000000   8.0000000   1.0000000   1.0000000   8.0000000   1.0000000   1.0000000   8.0000000   1.0000000

  Atom        41          42          43          44          45          46          47          48          49          50
 IAtWgt=           1          16           1           1          16           1           1          16           1           1
 AtmWgt=   1.0078250  15.9949146   1.0078250   1.0078250  15.9949146   1.0078250   1.0078250  15.9949146   1.0078250   1.0078250
 NucSpn=           1           0           1           1           0           1           1           0           1           1
 AtZEff=   0.0000000   0.0000000   0.0000000   0.0000000   0.0000000   0.0000000   0.0000000   0.0000000   0.0000000   0.0000000
 NQMom=    0.0000000   0.0000000   0.0000000   0.0000000   0.0000000   0.0000000   0.0000000   0.0000000   0.0000000   0.0000000
 NMagM=    2.7928460   0.0000000   2.7928460   2.7928460   0.0000000   2.7928460   2.7928460   0.0000000   2.7928460   2.7928460
 AtZNuc=   1.0000000   8.0000000   1.0000000   1.0000000   8.0000000   1.0000000   1.0000000   8.0000000   1.0000000   1.0000000
 Background charge distribution read from input stream:
 Point Charges:
 XYZ=    2.0627   -2.3244    4.1946 Q=   -0.8200 A=    0.0000 R=    0.0000 C=    0.0000
 XYZ=    2.6658   -1.8143    3.5813 Q=    0.4100 A=    0.0000 R=    0.0000 C=    0.0000
 XYZ=    1.4480   -2.8998    3.6550 Q=    0.4100 A=    0.0000 R=    0.0000 C=    0.0000
 XYZ=    2.0196   -5.0796    1.9140 Q=   -0.8200 A=    0.0000 R=    0.0000 C=    0.0000
 XYZ=    1.2758   -4.5415    2.3105 Q=    0.4100 A=    0.0000 R=    0.0000 C=    0.0000
 XYZ=    2.5306   -5.5315    2.6453 Q=    0.4100 A=    0.0000 R=    0.0000 C=    0.0000
 XYZ=    5.5474   -0.3946   -3.3133 Q=   -0.8200 A=    0.0000 R=    0.0000 C=    0.0000
 XYZ=    6.2552   -0.2604   -4.0069 Q=    0.4100 A=    0.0000 R=    0.0000 C=    0.0000
 XYZ=    5.4735   -1.3681   -3.0966 Q=    0.4100 A=    0.0000 R=    0.0000 C=    0.0000
 XYZ=   -2.5724    1.6381   -5.4856 Q=   -0.8200 A=    0.0000 R=    0.0000 C=    0.0000
 XYZ=   -2.5969    2.3917   -4.8287 Q=    0.4100 A=    0.0000 R=    0.0000 C=    0.0000
 XYZ=   -2.7777    1.9865   -6.4003 Q=    0.4100 A=    0.0000 R=    0.0000 C=    0.0000
 XYZ=    0.5863   -1.2120    5.5277 Q=   -0.8200 A=    0.0000 R=    0.0000 C=    0.0000
 XYZ=    1.0259   -0.4802    6.0486 Q=    0.4100 A=    0.0000 R=    0.0000 C=    0.0000
 XYZ=    1.2640   -1.6584    4.9433 Q=    0.4100 A=    0.0000 R=    0.0000 C=    0.0000
 XYZ=    4.1554   -5.0051    0.6930 Q=   -0.8200 A=    0.0000 R=    0.0000 C=    0.0000
 XYZ=    3.2902   -4.7724    1.1371 Q=    0.4100 A=    0.0000 R=    0.0000 C=    0.0000
 XYZ=    3.9834   -5.6411   -0.0594 Q=    0.4100 A=    0.0000 R=    0.0000 C=    0.0000
 XYZ=    4.1045   -1.7408    3.2224 Q=   -0.8200 A=    0.0000 R=    0.0000 C=    0.0000
 XYZ=    4.3121   -0.9993    3.8605 Q=    0.4100 A=    0.0000 R=    0.0000 C=    0.0000
 XYZ=    4.8346   -1.8096    2.5424 Q=    0.4100 A=    0.0000 R=    0.0000 C=    0.0000
 XYZ=   -2.0831    6.0280   -2.0798 Q=   -0.8200 A=    0.0000 R=    0.0000 C=    0.0000
 XYZ=   -2.2852    5.2300   -1.5120 Q=    0.4100 A=    0.0000 R=    0.0000 C=    0.0000
 XYZ=   -2.0040    6.8385   -1.4995 Q=    0.4100 A=    0.0000 R=    0.0000 C=    0.0000
 XYZ=   -5.2217    3.4223   -1.1928 Q=   -0.8200 A=    0.0000 R=    0.0000 C=    0.0000
 XYZ=   -5.5889    4.3135   -0.9263 Q=    0.4100 A=    0.0000 R=    0.0000 C=    0.0000
 XYZ=   -5.7930    2.6976   -0.8074 Q=    0.4100 A=    0.0000 R=    0.0000 C=    0.0000
 XYZ=    3.1730    4.3029    1.9837 Q=   -0.8200 A=    0.0000 R=    0.0000 C=    0.0000
 XYZ=    2.6768    3.5957    1.4801 Q=    0.4100 A=    0.0000 R=    0.0000 C=    0.0000
 XYZ=    3.6061    4.9309    1.3371 Q=    0.4100 A=    0.0000 R=    0.0000 C=    0.0000
 XYZ=    5.9254   -2.4986   -2.0394 Q=   -0.8200 A=    0.0000 R=    0.0000 C=    0.0000
 XYZ=    6.7779   -1.9773   -2.0015 Q=    0.4100 A=    0.0000 R=    0.0000 C=    0.0000
 XYZ=    5.9066   -3.1615   -1.2909 Q=    0.4100 A=    0.0000 R=    0.0000 C=    0.0000
 XYZ=    3.2439    4.1841   -1.1967 Q=   -0.8200 A=    0.0000 R=    0.0000 C=    0.0000
 XYZ=    3.5877    4.9005   -0.5897 Q=    0.4100 A=    0.0000 R=    0.0000 C=    0.0000
 XYZ=    4.0017    3.8056   -1.7283 Q=    0.4100 A=    0.0000 R=    0.0000 C=    0.0000
 XYZ=    5.9594   -2.2575    1.7006 Q=   -0.8200 A=    0.0000 R=    0.0000 C=    0.0000
 XYZ=    5.9051   -2.5634    0.7501 Q=    0.4100 A=    0.0000 R=    0.0000 C=    0.0000
 XYZ=    6.1977   -3.0318    2.2869 Q=    0.4100 A=    0.0000 R=    0.0000 C=    0.0000
 XYZ=   -5.1607    3.9403    2.1321 Q=   -0.8200 A=    0.0000 R=    0.0000 C=    0.0000
 XYZ=   -5.6593    4.6224    1.5971 Q=    0.4100 A=    0.0000 R=    0.0000 C=    0.0000
 XYZ=   -5.3885    4.0446    3.1002 Q=    0.4100 A=    0.0000 R=    0.0000 C=    0.0000
 XYZ=    1.6245   -6.7703    0.0461 Q=   -0.8200 A=    0.0000 R=    0.0000 C=    0.0000
 XYZ=    1.8549   -6.1230    0.7727 Q=    0.4100 A=    0.0000 R=    0.0000 C=    0.0000
 XYZ=    2.3127   -6.7180   -0.6775 Q=    0.4100 A=    0.0000 R=    0.0000 C=    0.0000
 XYZ=   -1.8417    6.9839    1.4899 Q=   -0.8200 A=    0.0000 R=    0.0000 C=    0.0000
 XYZ=   -2.1835    7.5947    2.2042 Q=    0.4100 A=    0.0000 R=    0.0000 C=    0.0000
 XYZ=   -2.2048    6.0637    1.6364 Q=    0.4100 A=    0.0000 R=    0.0000 C=    0.0000
 XYZ=   -4.6479    3.6221   -3.4206 Q=   -0.8200 A=    0.0000 R=    0.0000 C=    0.0000
 XYZ=   -4.9505    3.3927   -2.4955 Q=    0.4100 A=    0.0000 R=    0.0000 C=    0.0000
 XYZ=   -5.3804    3.4199   -4.0706 Q=    0.4100 A=    0.0000 R=    0.0000 C=    0.0000
 XYZ=    5.9730   -3.8826   -0.3050 Q=   -0.8200 A=    0.0000 R=    0.0000 C=    0.0000
 XYZ=    5.2387   -4.4165    0.1142 Q=    0.4100 A=    0.0000 R=    0.0000 C=    0.0000
 XYZ=    6.8361   -4.3810   -0.2231 Q=    0.4100 A=    0.0000 R=    0.0000 C=    0.0000
 XYZ=   -5.4638   -2.5159    3.0002 Q=   -0.8200 A=    0.0000 R=    0.0000 C=    0.0000
 XYZ=   -4.5217   -2.3500    3.2918 Q=    0.4100 A=    0.0000 R=    0.0000 C=    0.0000
 XYZ=   -5.6775   -3.4877    3.1003 Q=    0.4100 A=    0.0000 R=    0.0000 C=    0.0000
 XYZ=    1.3071    5.7266   -1.1575 Q=   -0.8200 A=    0.0000 R=    0.0000 C=    0.0000
 XYZ=    2.1520    5.3386   -1.5259 Q=    0.4100 A=    0.0000 R=    0.0000 C=    0.0000
 XYZ=    0.6919    5.9608   -1.9103 Q=    0.4100 A=    0.0000 R=    0.0000 C=    0.0000
 XYZ=    6.6379   -0.1658    1.3340 Q=   -0.8200 A=    0.0000 R=    0.0000 C=    0.0000
 XYZ=    5.8710    0.4758    1.3157 Q=    0.4100 A=    0.0000 R=    0.0000 C=    0.0000
 XYZ=    6.2910   -1.0966    1.4489 Q=    0.4100 A=    0.0000 R=    0.0000 C=    0.0000
 XYZ=   -4.8467    0.6494   -5.1348 Q=   -0.8200 A=    0.0000 R=    0.0000 C=    0.0000
 XYZ=   -4.8762   -0.3107   -4.8566 Q=    0.4100 A=    0.0000 R=    0.0000 C=    0.0000
 XYZ=   -3.9022    0.9092   -5.3359 Q=    0.4100 A=    0.0000 R=    0.0000 C=    0.0000
 XYZ=   -2.0987    4.6033   -6.0051 Q=   -0.8200 A=    0.0000 R=    0.0000 C=    0.0000
 XYZ=   -2.3061    4.1360   -5.1457 Q=    0.4100 A=    0.0000 R=    0.0000 C=    0.0000
 XYZ=   -2.8344    4.4359   -6.6614 Q=    0.4100 A=    0.0000 R=    0.0000 C=    0.0000
 XYZ=    3.5720   -2.1846   -7.3377 Q=   -0.8200 A=    0.0000 R=    0.0000 C=    0.0000
 XYZ=    3.8254   -2.9525   -6.7493 Q=    0.4100 A=    0.0000 R=    0.0000 C=    0.0000
 XYZ=    3.0576   -1.5123   -6.8052 Q=    0.4100 A=    0.0000 R=    0.0000 C=    0.0000
 XYZ=   -0.9397   -2.5799    6.7574 Q=   -0.8200 A=    0.0000 R=    0.0000 C=    0.0000
 XYZ=   -0.3906   -1.9540    6.2035 Q=    0.4100 A=    0.0000 R=    0.0000 C=    0.0000
 XYZ=   -1.7690   -2.8280    6.2566 Q=    0.4100 A=    0.0000 R=    0.0000 C=    0.0000
 XYZ=    4.7060   -5.6956   -3.1915 Q=   -0.8200 A=    0.0000 R=    0.0000 C=    0.0000
 XYZ=    4.6622   -4.7118   -3.3658 Q=    0.4100 A=    0.0000 R=    0.0000 C=    0.0000
 XYZ=    4.2001   -6.1830   -3.9033 Q=    0.4100 A=    0.0000 R=    0.0000 C=    0.0000
 XYZ=    7.1476    0.7755   -0.7317 Q=   -0.8200 A=    0.0000 R=    0.0000 C=    0.0000
 XYZ=    6.2968    1.0962   -1.1479 Q=    0.4100 A=    0.0000 R=    0.0000 C=    0.0000
 XYZ=    6.9431    0.3149    0.1321 Q=    0.4100 A=    0.0000 R=    0.0000 C=    0.0000
 XYZ=    4.1414   -3.9581    4.3942 Q=   -0.8200 A=    0.0000 R=    0.0000 C=    0.0000
 XYZ=    3.9519   -3.0880    3.9391 Q=    0.4100 A=    0.0000 R=    0.0000 C=    0.0000
 XYZ=    3.7348   -3.9518    5.3078 Q=    0.4100 A=    0.0000 R=    0.0000 C=    0.0000
 XYZ=   -6.9604    2.2832    1.6076 Q=   -0.8200 A=    0.0000 R=    0.0000 C=    0.0000
 XYZ=   -6.2075    2.8979    1.8430 Q=    0.4100 A=    0.0000 R=    0.0000 C=    0.0000
 XYZ=   -6.8336    1.9424    0.6760 Q=    0.4100 A=    0.0000 R=    0.0000 C=    0.0000
 XYZ=   -5.2664   -1.0603    4.8620 Q=   -0.8200 A=    0.0000 R=    0.0000 C=    0.0000
 XYZ=   -4.2719   -1.1516    4.8109 Q=    0.4100 A=    0.0000 R=    0.0000 C=    0.0000
 XYZ=   -5.6815   -1.4785    4.0540 Q=    0.4100 A=    0.0000 R=    0.0000 C=    0.0000
 XYZ=    0.0639    6.1797   -3.0822 Q=   -0.8200 A=    0.0000 R=    0.0000 C=    0.0000
 XYZ=   -0.8904    6.1296   -2.7873 Q=    0.4100 A=    0.0000 R=    0.0000 C=    0.0000
 XYZ=    0.1467    5.8088   -4.0072 Q=    0.4100 A=    0.0000 R=    0.0000 C=    0.0000
 XYZ=   -6.6900    1.7314   -0.6713 Q=   -0.8200 A=    0.0000 R=    0.0000 C=    0.0000
 XYZ=   -6.7742    0.7564   -0.4652 Q=    0.4100 A=    0.0000 R=    0.0000 C=    0.0000
 XYZ=   -6.9771    1.8986   -1.6145 Q=    0.4100 A=    0.0000 R=    0.0000 C=    0.0000
 XYZ=    4.4580   -4.2808   -6.1641 Q=   -0.8200 A=    0.0000 R=    0.0000 C=    0.0000
 XYZ=    4.4728   -4.0429   -5.1929 Q=    0.4100 A=    0.0000 R=    0.0000 C=    0.0000
 XYZ=    5.3886   -4.4764   -6.4736 Q=    0.4100 A=    0.0000 R=    0.0000 C=    0.0000
 XYZ=   -0.0164    5.2387   -5.1565 Q=   -0.8200 A=    0.0000 R=    0.0000 C=    0.0000
 XYZ=   -0.9662    4.9805   -5.3331 Q=    0.4100 A=    0.0000 R=    0.0000 C=    0.0000
 XYZ=    0.5272    5.0958   -5.9836 Q=    0.4100 A=    0.0000 R=    0.0000 C=    0.0000
 XYZ=    5.7699   -4.6297    2.5222 Q=   -0.8200 A=    0.0000 R=    0.0000 C=    0.0000
 XYZ=    5.4784   -4.7304    3.4734 Q=    0.4100 A=    0.0000 R=    0.0000 C=    0.0000
 XYZ=    4.9977   -4.8176    1.9152 Q=    0.4100 A=    0.0000 R=    0.0000 C=    0.0000
 XYZ=    5.6938    2.4062    2.8288 Q=   -0.8200 A=    0.0000 R=    0.0000 C=    0.0000
 XYZ=    5.1640    3.0965    3.3215 Q=    0.4100 A=    0.0000 R=    0.0000 C=    0.0000
 XYZ=    5.2621    2.2224    1.9457 Q=    0.4100 A=    0.0000 R=    0.0000 C=    0.0000
 XYZ=    5.0895    3.5888   -2.6760 Q=   -0.8200 A=    0.0000 R=    0.0000 C=    0.0000
 XYZ=    5.9852    3.7650   -2.2677 Q=    0.4100 A=    0.0000 R=    0.0000 C=    0.0000
 XYZ=    5.0287    4.0536   -3.5594 Q=    0.4100 A=    0.0000 R=    0.0000 C=    0.0000
 XYZ=   -0.5536   -5.3468    3.7688 Q=   -0.8200 A=    0.0000 R=    0.0000 C=    0.0000
 XYZ=   -0.9380   -5.8778    3.0136 Q=    0.4100 A=    0.0000 R=    0.0000 C=    0.0000
 XYZ=    0.0570   -5.9274    4.3075 Q=    0.4100 A=    0.0000 R=    0.0000 C=    0.0000
 XYZ=    2.8939   -3.3287    6.3310 Q=   -0.8200 A=    0.0000 R=    0.0000 C=    0.0000
 XYZ=    2.5216   -2.7877    5.5768 Q=    0.4100 A=    0.0000 R=    0.0000 C=    0.0000
 XYZ=    3.5249   -2.7660    6.8651 Q=    0.4100 A=    0.0000 R=    0.0000 C=    0.0000
 XYZ=   -7.0873   -0.5994   -0.1617 Q=   -0.8200 A=    0.0000 R=    0.0000 C=    0.0000
 XYZ=   -6.6572   -0.9889   -0.9761 Q=    0.4100 A=    0.0000 R=    0.0000 C=    0.0000
 XYZ=   -6.9984   -1.2402    0.6009 Q=    0.4100 A=    0.0000 R=    0.0000 C=    0.0000
 XYZ=    3.7653   -6.5790   -1.2569 Q=   -0.8200 A=    0.0000 R=    0.0000 C=    0.0000
 XYZ=    4.4440   -7.2389   -0.9343 Q=    0.4100 A=    0.0000 R=    0.0000 C=    0.0000
 XYZ=    4.1042   -6.1295   -2.0834 Q=    0.4100 A=    0.0000 R=    0.0000 C=    0.0000
 XYZ=    0.3164    7.2333    2.3305 Q=   -0.8200 A=    0.0000 R=    0.0000 C=    0.0000
 XYZ=    0.3714    8.0130    2.9542 Q=    0.4100 A=    0.0000 R=    0.0000 C=    0.0000
 XYZ=   -0.6412    7.0540    2.1048 Q=    0.4100 A=    0.0000 R=    0.0000 C=    0.0000
 XYZ=   -3.1506   -3.3220    5.7791 Q=   -0.8200 A=    0.0000 R=    0.0000 C=    0.0000
 XYZ=   -3.5016   -3.5223    6.6938 Q=    0.4100 A=    0.0000 R=    0.0000 C=    0.0000
 XYZ=   -2.8015   -4.1625    5.3646 Q=    0.4100 A=    0.0000 R=    0.0000 C=    0.0000
 XYZ=    7.9095   -1.3740   -1.4166 Q=   -0.8200 A=    0.0000 R=    0.0000 C=    0.0000
 XYZ=    7.6094   -0.4519   -1.1724 Q=    0.4100 A=    0.0000 R=    0.0000 C=    0.0000
 XYZ=    8.3264   -1.8109   -0.6194 Q=    0.4100 A=    0.0000 R=    0.0000 C=    0.0000
 XYZ=    2.0079    7.0847    0.6445 Q=   -0.8200 A=    0.0000 R=    0.0000 C=    0.0000
 XYZ=    1.4138    7.0281    1.4469 Q=    0.4100 A=    0.0000 R=    0.0000 C=    0.0000
 XYZ=    1.5583    6.6477   -0.1346 Q=    0.4100 A=    0.0000 R=    0.0000 C=    0.0000
 XYZ=    4.6994   -0.2265    5.0419 Q=   -0.8200 A=    0.0000 R=    0.0000 C=    0.0000
 XYZ=    5.2808   -0.7448    5.6690 Q=    0.4100 A=    0.0000 R=    0.0000 C=    0.0000
 XYZ=    4.1067    0.3854    5.5657 Q=    0.4100 A=    0.0000 R=    0.0000 C=    0.0000
 XYZ=   -4.1965    6.0434   -3.3981 Q=   -0.8200 A=    0.0000 R=    0.0000 C=    0.0000
 XYZ=   -3.2671    6.0936   -3.0322 Q=    0.4100 A=    0.0000 R=    0.0000 C=    0.0000
 XYZ=   -4.4457    5.0861   -3.5447 Q=    0.4100 A=    0.0000 R=    0.0000 C=    0.0000
 XYZ=   -6.7167   -2.5612    1.0967 Q=   -0.8200 A=    0.0000 R=    0.0000 C=    0.0000
 XYZ=   -6.0770   -2.4821    1.8613 Q=    0.4100 A=    0.0000 R=    0.0000 C=    0.0000
 XYZ=   -6.8703   -3.5273    0.8893 Q=    0.4100 A=    0.0000 R=    0.0000 C=    0.0000
 XYZ=    5.9199   -1.0135   -7.1862 Q=   -0.8200 A=    0.0000 R=    0.0000 C=    0.0000
 XYZ=    6.3891   -0.9492   -6.3055 Q=    0.4100 A=    0.0000 R=    0.0000 C=    0.0000
 XYZ=    5.0185   -1.4260   -7.0542 Q=    0.4100 A=    0.0000 R=    0.0000 C=    0.0000
 XYZ=   -0.4191   -7.7384    0.6608 Q=   -0.8200 A=    0.0000 R=    0.0000 C=    0.0000
 XYZ=    0.4716   -7.3767    0.3853 Q=    0.4100 A=    0.0000 R=    0.0000 C=    0.0000
 XYZ=   -0.7540   -8.3686   -0.0396 Q=    0.4100 A=    0.0000 R=    0.0000 C=    0.0000
 XYZ=   -3.9493   -6.2965    1.7033 Q=   -0.8200 A=    0.0000 R=    0.0000 C=    0.0000
 XYZ=   -3.3012   -5.6083    1.3770 Q=    0.4100 A=    0.0000 R=    0.0000 C=    0.0000
 XYZ=   -4.7533   -6.3055    1.1087 Q=    0.4100 A=    0.0000 R=    0.0000 C=    0.0000
 XYZ=    1.3128    6.1138    4.4138 Q=   -0.8200 A=    0.0000 R=    0.0000 C=    0.0000
 XYZ=    1.1473    6.5440    3.5264 Q=    0.4100 A=    0.0000 R=    0.0000 C=    0.0000
 XYZ=    1.5160    5.1436    4.2811 Q=    0.4100 A=    0.0000 R=    0.0000 C=    0.0000
 XYZ=    0.1361    4.6239   -7.5800 Q=   -0.8200 A=    0.0000 R=    0.0000 C=    0.0000
 XYZ=   -0.5864    4.2609   -6.9915 Q=    0.4100 A=    0.0000 R=    0.0000 C=    0.0000
 XYZ=    0.9405    4.0325   -7.5236 Q=    0.4100 A=    0.0000 R=    0.0000 C=    0.0000
 XYZ=    2.8433    1.0256   -7.7946 Q=   -0.8200 A=    0.0000 R=    0.0000 C=    0.0000
 XYZ=    3.8084    1.2396   -7.6435 Q=    0.4100 A=    0.0000 R=    0.0000 C=    0.0000
 XYZ=    2.7146    0.7140   -8.7360 Q=    0.4100 A=    0.0000 R=    0.0000 C=    0.0000
 XYZ=   -2.4992   -5.5276    5.1172 Q=   -0.8200 A=    0.0000 R=    0.0000 C=    0.0000
 XYZ=   -1.6935   -5.3803    4.5434 Q=    0.4100 A=    0.0000 R=    0.0000 C=    0.0000
 XYZ=   -2.3241   -6.2817    5.7502 Q=    0.4100 A=    0.0000 R=    0.0000 C=    0.0000
 XYZ=   -1.7962    7.9860   -0.5846 Q=   -0.8200 A=    0.0000 R=    0.0000 C=    0.0000
 XYZ=   -0.9447    8.4759   -0.7716 Q=    0.4100 A=    0.0000 R=    0.0000 C=    0.0000
 XYZ=   -1.7578    7.5890    0.3325 Q=    0.4100 A=    0.0000 R=    0.0000 C=    0.0000
 XYZ=   -6.6763    4.8019    0.4058 Q=   -0.8200 A=    0.0000 R=    0.0000 C=    0.0000
 XYZ=   -6.7729    5.7514    0.1072 Q=    0.4100 A=    0.0000 R=    0.0000 C=    0.0000
 XYZ=   -7.5664    4.4522    0.6982 Q=    0.4100 A=    0.0000 R=    0.0000 C=    0.0000
 XYZ=    1.9235    3.1944   -7.3848 Q=   -0.8200 A=    0.0000 R=    0.0000 C=    0.0000
 XYZ=    2.6666    3.8139   -7.1316 Q=    0.4100 A=    0.0000 R=    0.0000 C=    0.0000
 XYZ=    2.2754    2.2604   -7.4484 Q=    0.4100 A=    0.0000 R=    0.0000 C=    0.0000
 XYZ=   -7.8710    0.6981    3.0981 Q=   -0.8200 A=    0.0000 R=    0.0000 C=    0.0000
 XYZ=   -7.4399    1.2460    2.3811 Q=    0.4100 A=    0.0000 R=    0.0000 C=    0.0000
 XYZ=   -7.3139    0.7370    3.9276 Q=    0.4100 A=    0.0000 R=    0.0000 C=    0.0000
 XYZ=    2.2146    0.2034    7.1926 Q=   -0.8200 A=    0.0000 R=    0.0000 C=    0.0000
 XYZ=    2.6961   -0.4628    7.7621 Q=    0.4100 A=    0.0000 R=    0.0000 C=    0.0000
 XYZ=    2.8694    0.8661    6.8290 Q=    0.4100 A=    0.0000 R=    0.0000 C=    0.0000
 XYZ=    3.2896   -6.0347    3.6962 Q=   -0.8200 A=    0.0000 R=    0.0000 C=    0.0000
 XYZ=    2.5680   -6.2876    4.3407 Q=    0.4100 A=    0.0000 R=    0.0000 C=    0.0000
 XYZ=    3.8711   -5.3319    4.1058 Q=    0.4100 A=    0.0000 R=    0.0000 C=    0.0000
 XYZ=    7.2154   -0.5717   -5.1052 Q=   -0.8200 A=    0.0000 R=    0.0000 C=    0.0000
 XYZ=    7.7161    0.2907   -5.0305 Q=    0.4100 A=    0.0000 R=    0.0000 C=    0.0000
 XYZ=    7.8641   -1.3322   -5.1354 Q=    0.4100 A=    0.0000 R=    0.0000 C=    0.0000
 XYZ=    0.7577   -4.3314    6.8052 Q=   -0.8200 A=    0.0000 R=    0.0000 C=    0.0000
 XYZ=    1.6531   -3.8950    6.7174 Q=    0.4100 A=    0.0000 R=    0.0000 C=    0.0000
 XYZ=    0.0491   -3.6286    6.8678 Q=    0.4100 A=    0.0000 R=    0.0000 C=    0.0000
 XYZ=   -6.2478    2.6296   -4.8076 Q=   -0.8200 A=    0.0000 R=    0.0000 C=    0.0000
 XYZ=   -6.5828    3.0059   -5.6715 Q=    0.4100 A=    0.0000 R=    0.0000 C=    0.0000
 XYZ=   -5.9017    1.7038   -4.9594 Q=    0.4100 A=    0.0000 R=    0.0000 C=    0.0000
 XYZ=    4.5859    4.6754    3.8137 Q=   -0.8200 A=    0.0000 R=    0.0000 C=    0.0000
 XYZ=    4.1720    4.2794    4.6334 Q=    0.4100 A=    0.0000 R=    0.0000 C=    0.0000
 XYZ=    3.9636    4.5636    3.0389 Q=    0.4100 A=    0.0000 R=    0.0000 C=    0.0000
 XYZ=   -6.7078    0.7834    5.0965 Q=   -0.8200 A=    0.0000 R=    0.0000 C=    0.0000
 XYZ=   -5.9323    0.1521    5.0851 Q=    0.4100 A=    0.0000 R=    0.0000 C=    0.0000
 XYZ=   -7.4835    0.3502    5.5556 Q=    0.4100 A=    0.0000 R=    0.0000 C=    0.0000
 XYZ=    5.0728    1.3380   -7.1625 Q=   -0.8200 A=    0.0000 R=    0.0000 C=    0.0000
 XYZ=    5.7917    1.9952   -6.9358 Q=    0.4100 A=    0.0000 R=    0.0000 C=    0.0000
 XYZ=    5.4558    0.4142   -7.1688 Q=    0.4100 A=    0.0000 R=    0.0000 C=    0.0000
 XYZ=   -3.5950    2.4378   -7.3618 Q=   -0.8200 A=    0.0000 R=    0.0000 C=    0.0000
 XYZ=   -4.4561    1.9357   -7.4416 Q=    0.4100 A=    0.0000 R=    0.0000 C=    0.0000
 XYZ=   -3.7515    3.4033   -7.5700 Q=    0.4100 A=    0.0000 R=    0.0000 C=    0.0000
 XYZ=    3.9288    1.4127    6.4550 Q=   -0.8200 A=    0.0000 R=    0.0000 C=    0.0000
 XYZ=    4.5932    1.1735    7.1630 Q=    0.4100 A=    0.0000 R=    0.0000 C=    0.0000
 XYZ=    4.0341    2.3768    6.2110 Q=    0.4100 A=    0.0000 R=    0.0000 C=    0.0000
 XYZ=    0.7196    8.5205   -2.8794 Q=   -0.8200 A=    0.0000 R=    0.0000 C=    0.0000
 XYZ=    0.8305    8.9841   -3.7586 Q=    0.4100 A=    0.0000 R=    0.0000 C=    0.0000
 XYZ=    0.6256    7.5366   -3.0311 Q=    0.4100 A=    0.0000 R=    0.0000 C=    0.0000
 XYZ=    6.7516   -6.5243   -2.2471 Q=   -0.8200 A=    0.0000 R=    0.0000 C=    0.0000
 XYZ=    5.9533   -6.0652   -2.6370 Q=    0.4100 A=    0.0000 R=    0.0000 C=    0.0000
 XYZ=    7.4356   -6.6682   -2.9623 Q=    0.4100 A=    0.0000 R=    0.0000 C=    0.0000
 XYZ=   -1.7241   -7.2842    2.5209 Q=   -0.8200 A=    0.0000 R=    0.0000 C=    0.0000
 XYZ=   -1.1822   -7.4111    1.6901 Q=    0.4100 A=    0.0000 R=    0.0000 C=    0.0000
 XYZ=   -2.6914   -7.2067    2.2793 Q=    0.4100 A=    0.0000 R=    0.0000 C=    0.0000
 XYZ=    6.7782    0.7890    4.4045 Q=   -0.8200 A=    0.0000 R=    0.0000 C=    0.0000
 XYZ=    6.5400    1.2810    3.5671 Q=    0.4100 A=    0.0000 R=    0.0000 C=    0.0000
 XYZ=    5.9424    0.4829    4.8604 Q=    0.4100 A=    0.0000 R=    0.0000 C=    0.0000
 XYZ=   -6.1878    4.5141    4.2445 Q=   -0.8200 A=    0.0000 R=    0.0000 C=    0.0000
 XYZ=   -6.8538    5.1104    3.7962 Q=    0.4100 A=    0.0000 R=    0.0000 C=    0.0000
 XYZ=   -6.6515    3.9527    4.9299 Q=    0.4100 A=    0.0000 R=    0.0000 C=    0.0000
 XYZ=    4.2520    5.7412    0.4604 Q=   -0.8200 A=    0.0000 R=    0.0000 C=    0.0000
 XYZ=    3.6111    6.4773    0.6780 Q=    0.4100 A=    0.0000 R=    0.0000 C=    0.0000
 XYZ=    5.1841    6.0389    0.6669 Q=    0.4100 A=    0.0000 R=    0.0000 C=    0.0000
 XYZ=    8.8177   -0.7060    2.3730 Q=   -0.8200 A=    0.0000 R=    0.0000 C=    0.0000
 XYZ=    8.9253   -0.6339    3.3646 Q=    0.4100 A=    0.0000 R=    0.0000 C=    0.0000
 XYZ=    7.8851   -0.4489    2.1194 Q=    0.4100 A=    0.0000 R=    0.0000 C=    0.0000
 XYZ=   -7.6181    2.5305   -2.6805 Q=   -0.8200 A=    0.0000 R=    0.0000 C=    0.0000
 XYZ=   -7.2476    2.4891   -3.6085 Q=    0.4100 A=    0.0000 R=    0.0000 C=    0.0000
 XYZ=   -8.5648    2.2084   -2.6850 Q=    0.4100 A=    0.0000 R=    0.0000 C=    0.0000
 XYZ=    8.4979   -2.5005   -4.8255 Q=   -0.8200 A=    0.0000 R=    0.0000 C=    0.0000
 XYZ=    9.1539   -2.0272   -4.2375 Q=    0.4100 A=    0.0000 R=    0.0000 C=    0.0000
 XYZ=    7.8185   -2.9669   -4.2590 Q=    0.4100 A=    0.0000 R=    0.0000 C=    0.0000
 XYZ=    1.2437    1.9382    8.7306 Q=   -0.8200 A=    0.0000 R=    0.0000 C=    0.0000
 XYZ=    1.5080    1.2084    8.1000 Q=    0.4100 A=    0.0000 R=    0.0000 C=    0.0000
 XYZ=    0.3205    1.7643    9.0733 Q=    0.4100 A=    0.0000 R=    0.0000 C=    0.0000
 XYZ=    3.5171   -5.8768   -7.8108 Q=   -0.8200 A=    0.0000 R=    0.0000 C=    0.0000
 XYZ=    4.3438   -6.0283   -8.3527 Q=    0.4100 A=    0.0000 R=    0.0000 C=    0.0000
 XYZ=    3.7287   -5.2740   -7.0415 Q=    0.4100 A=    0.0000 R=    0.0000 C=    0.0000
 XYZ=   -2.4288   -2.4312    8.7045 Q=   -0.8200 A=    0.0000 R=    0.0000 C=    0.0000
 XYZ=   -1.7566   -2.4514    7.9643 Q=    0.4100 A=    0.0000 R=    0.0000 C=    0.0000
 XYZ=   -2.0052   -2.7607    9.5483 Q=    0.4100 A=    0.0000 R=    0.0000 C=    0.0000
 XYZ=   -4.8965    5.5486    5.8598 Q=   -0.8200 A=    0.0000 R=    0.0000 C=    0.0000
 XYZ=   -5.6735    6.0555    6.2331 Q=    0.4100 A=    0.0000 R=    0.0000 C=    0.0000
 XYZ=   -5.2163    4.9282    5.1437 Q=    0.4100 A=    0.0000 R=    0.0000 C=    0.0000
 XYZ=    5.3415    4.5185   -5.0402 Q=   -0.8200 A=    0.0000 R=    0.0000 C=    0.0000
 XYZ=    6.0121    5.2525   -5.1480 Q=    0.4100 A=    0.0000 R=    0.0000 C=    0.0000
 XYZ=    5.6387    3.7167   -5.5587 Q=    0.4100 A=    0.0000 R=    0.0000 C=    0.0000
 XYZ=   -5.7168    1.2851   -7.4029 Q=   -0.8200 A=    0.0000 R=    0.0000 C=    0.0000
 XYZ=   -6.4087    0.7755   -7.9143 Q=    0.4100 A=    0.0000 R=    0.0000 C=    0.0000
 XYZ=   -5.5670    0.8465   -6.5168 Q=    0.4100 A=    0.0000 R=    0.0000 C=    0.0000
 XYZ=   -8.7765    4.0073    1.8659 Q=   -0.8200 A=    0.0000 R=    0.0000 C=    0.0000
 XYZ=   -8.1394    3.2384    1.9210 Q=    0.4100 A=    0.0000 R=    0.0000 C=    0.0000
 XYZ=   -9.6031    3.7931    2.3864 Q=    0.4100 A=    0.0000 R=    0.0000 C=    0.0000
 XYZ=    8.6336    2.5842   -0.5783 Q=   -0.8200 A=    0.0000 R=    0.0000 C=    0.0000
 XYZ=    8.0775    1.7531   -0.5886 Q=    0.4100 A=    0.0000 R=    0.0000 C=    0.0000
 XYZ=    8.9759    2.7449    0.3475 Q=    0.4100 A=    0.0000 R=    0.0000 C=    0.0000
 XYZ=    7.7377   -5.6587    1.8543 Q=   -0.8200 A=    0.0000 R=    0.0000 C=    0.0000
 XYZ=    6.8908   -5.1652    2.0522 Q=    0.4100 A=    0.0000 R=    0.0000 C=    0.0000
 XYZ=    7.8069   -5.8205    0.8699 Q=    0.4100 A=    0.0000 R=    0.0000 C=    0.0000
 XYZ=    1.1012   -6.2507    5.1877 Q=   -0.8200 A=    0.0000 R=    0.0000 C=    0.0000
 XYZ=    0.7582   -7.1394    5.4921 Q=    0.4100 A=    0.0000 R=    0.0000 C=    0.0000
 XYZ=    0.9104   -5.5623    5.8875 Q=    0.4100 A=    0.0000 R=    0.0000 C=    0.0000
 XYZ=   -6.1869   -2.1703    6.7104 Q=   -0.8200 A=    0.0000 R=    0.0000 C=    0.0000
 XYZ=   -5.6860   -1.6772    5.9990 Q=    0.4100 A=    0.0000 R=    0.0000 C=    0.0000
 XYZ=   -5.5377   -2.5982    7.3393 Q=    0.4100 A=    0.0000 R=    0.0000 C=    0.0000
 XYZ=    3.4130    4.8587   -6.5483 Q=   -0.8200 A=    0.0000 R=    0.0000 C=    0.0000
 XYZ=    3.2304    5.8410   -6.5907 Q=    0.4100 A=    0.0000 R=    0.0000 C=    0.0000
 XYZ=    4.2007    4.6915   -5.9553 Q=    0.4100 A=    0.0000 R=    0.0000 C=    0.0000
 XYZ=   -4.5672   -6.1499    3.9851 Q=   -0.8200 A=    0.0000 R=    0.0000 C=    0.0000
 XYZ=   -3.7674   -5.7832    4.4604 Q=    0.4100 A=    0.0000 R=    0.0000 C=    0.0000
 XYZ=   -4.3219   -6.3696    3.0408 Q=    0.4100 A=    0.0000 R=    0.0000 C=    0.0000
 XYZ=    3.9849    3.6997    5.8120 Q=   -0.8200 A=    0.0000 R=    0.0000 C=    0.0000
 XYZ=    4.6268    3.7660    6.5759 Q=    0.4100 A=    0.0000 R=    0.0000 C=    0.0000
 XYZ=    3.2933    4.4172    5.8946 Q=    0.4100 A=    0.0000 R=    0.0000 C=    0.0000
 XYZ=    3.6544   -2.3224   -9.8007 Q=   -0.8200 A=    0.0000 R=    0.0000 C=    0.0000
 XYZ=    3.5958   -2.2833   -8.8032 Q=    0.4100 A=    0.0000 R=    0.0000 C=    0.0000
 XYZ=    4.4154   -2.9141  -10.0670 Q=    0.4100 A=    0.0000 R=    0.0000 C=    0.0000
 XYZ=   -1.8592   -2.2431   -9.0939 Q=   -0.8200 A=    0.0000 R=    0.0000 C=    0.0000
 XYZ=   -1.8365   -3.0725   -9.6521 Q=    0.4100 A=    0.0000 R=    0.0000 C=    0.0000
 XYZ=   -2.0157   -2.4894   -8.1374 Q=    0.4100 A=    0.0000 R=    0.0000 C=    0.0000
 XYZ=    1.9762    4.9550    6.3833 Q=   -0.8200 A=    0.0000 R=    0.0000 C=    0.0000
 XYZ=    1.5853    5.5109    5.6497 Q=    0.4100 A=    0.0000 R=    0.0000 C=    0.0000
 XYZ=    1.2726    4.7639    7.0678 Q=    0.4100 A=    0.0000 R=    0.0000 C=    0.0000
 XYZ=   -4.0770    8.3665   -0.8392 Q=   -0.8200 A=    0.0000 R=    0.0000 C=    0.0000
 XYZ=   -4.5003    9.0740   -0.2732 Q=    0.4100 A=    0.0000 R=    0.0000 C=    0.0000
 XYZ=   -3.0862    8.3801   -0.7040 Q=    0.4100 A=    0.0000 R=    0.0000 C=    0.0000
 XYZ=    7.2056    3.8915   -1.7368 Q=   -0.8200 A=    0.0000 R=    0.0000 C=    0.0000
 XYZ=    7.7438    3.1366   -1.3620 Q=    0.4100 A=    0.0000 R=    0.0000 C=    0.0000
 XYZ=    7.3868    4.7230   -1.2117 Q=    0.4100 A=    0.0000 R=    0.0000 C=    0.0000
 XYZ=    4.7668   -7.7098    2.6941 Q=   -0.8200 A=    0.0000 R=    0.0000 C=    0.0000
 XYZ=    4.3799   -7.9225    1.7967 Q=    0.4100 A=    0.0000 R=    0.0000 C=    0.0000
 XYZ=    4.1012   -7.1893    3.2290 Q=    0.4100 A=    0.0000 R=    0.0000 C=    0.0000
 XYZ=    0.4107    8.8512   -0.6360 Q=   -0.8200 A=    0.0000 R=    0.0000 C=    0.0000
 XYZ=    0.6635    8.7769   -1.6007 Q=    0.4100 A=    0.0000 R=    0.0000 C=    0.0000
 XYZ=    1.0190    8.2780   -0.0870 Q=    0.4100 A=    0.0000 R=    0.0000 C=    0.0000
 XYZ=    9.7530   -1.4678   -3.0377 Q=   -0.8200 A=    0.0000 R=    0.0000 C=    0.0000
 XYZ=    8.9270   -1.3991   -2.4782 Q=    0.4100 A=    0.0000 R=    0.0000 C=    0.0000
 XYZ=   10.5018   -1.8313   -2.4834 Q=    0.4100 A=    0.0000 R=    0.0000 C=    0.0000
 XYZ=   -9.6383   -0.2661   -0.5350 Q=   -0.8200 A=    0.0000 R=    0.0000 C=    0.0000
 XYZ=  -10.0074    0.6345   -0.7647 Q=    0.4100 A=    0.0000 R=    0.0000 C=    0.0000
 XYZ=   -8.6874   -0.1713   -0.2404 Q=    0.4100 A=    0.0000 R=    0.0000 C=    0.0000
 XYZ=   -8.6310   -1.5333    2.3626 Q=   -0.8200 A=    0.0000 R=    0.0000 C=    0.0000
 XYZ=   -7.9112   -2.0434    1.8917 Q=    0.4100 A=    0.0000 R=    0.0000 C=    0.0000
 XYZ=   -8.2630   -0.6632    2.6905 Q=    0.4100 A=    0.0000 R=    0.0000 C=    0.0000
 XYZ=   -8.4255    5.0072   -1.8038 Q=   -0.8200 A=    0.0000 R=    0.0000 C=    0.0000
 XYZ=   -7.8391    5.7549   -1.4920 Q=    0.4100 A=    0.0000 R=    0.0000 C=    0.0000
 XYZ=   -7.8573    4.2534   -2.1339 Q=    0.4100 A=    0.0000 R=    0.0000 C=    0.0000
 XYZ=   -3.0037    1.9779   -9.5641 Q=   -0.8200 A=    0.0000 R=    0.0000 C=    0.0000
 XYZ=   -3.2051    2.0788   -8.5898 Q=    0.4100 A=    0.0000 R=    0.0000 C=    0.0000
 XYZ=   -3.0796    1.0147   -9.8221 Q=    0.4100 A=    0.0000 R=    0.0000 C=    0.0000
 XYZ=    7.9761    1.8027   -4.9008 Q=   -0.8200 A=    0.0000 R=    0.0000 C=    0.0000
 XYZ=    7.8939    2.6585   -4.3900 Q=    0.4100 A=    0.0000 R=    0.0000 C=    0.0000
 XYZ=    8.8417    1.3585   -4.6697 Q=    0.4100 A=    0.0000 R=    0.0000 C=    0.0000
 XYZ=    7.8516   -5.3271   -0.4497 Q=   -0.8200 A=    0.0000 R=    0.0000 C=    0.0000
 XYZ=    8.8084   -5.2234   -0.7216 Q=    0.4100 A=    0.0000 R=    0.0000 C=    0.0000
 XYZ=    7.3496   -5.8026   -1.1721 Q=    0.4100 A=    0.0000 R=    0.0000 C=    0.0000
 XYZ=    6.6104    2.9399   -6.5069 Q=   -0.8200 A=    0.0000 R=    0.0000 C=    0.0000
 XYZ=    7.1221    3.7005   -6.9064 Q=    0.4100 A=    0.0000 R=    0.0000 C=    0.0000
 XYZ=    7.2140    2.4072   -5.9137 Q=    0.4100 A=    0.0000 R=    0.0000 C=    0.0000
 XYZ=   -6.1886   -4.6198    3.5179 Q=   -0.8200 A=    0.0000 R=    0.0000 C=    0.0000
 XYZ=   -6.6869   -4.3469    4.3409 Q=    0.4100 A=    0.0000 R=    0.0000 C=    0.0000
 XYZ=   -5.4992   -5.3036    3.7570 Q=    0.4100 A=    0.0000 R=    0.0000 C=    0.0000
 XYZ=   -7.3228    3.1592    5.8390 Q=   -0.8200 A=    0.0000 R=    0.0000 C=    0.0000
 XYZ=   -7.3204    3.0387    6.8317 Q=    0.4100 A=    0.0000 R=    0.0000 C=    0.0000
 XYZ=   -7.1190    2.2857    5.3968 Q=    0.4100 A=    0.0000 R=    0.0000 C=    0.0000
 XYZ=   -6.8185    6.8269   -1.0216 Q=   -0.8200 A=    0.0000 R=    0.0000 C=    0.0000
 XYZ=   -6.0255    7.1691   -1.5258 Q=    0.4100 A=    0.0000 R=    0.0000 C=    0.0000
 XYZ=   -7.0274    7.4490   -0.2670 Q=    0.4100 A=    0.0000 R=    0.0000 C=    0.0000
 XYZ=    0.6645    4.2729    8.2706 Q=   -0.8200 A=    0.0000 R=    0.0000 C=    0.0000
 XYZ=    1.1359    4.6990    9.0429 Q=    0.4100 A=    0.0000 R=    0.0000 C=    0.0000
 XYZ=    0.9150    3.3061    8.2196 Q=    0.4100 A=    0.0000 R=    0.0000 C=    0.0000
 XYZ=   -2.3036    8.4766    3.1530 Q=   -0.8200 A=    0.0000 R=    0.0000 C=    0.0000
 XYZ=   -2.7499    8.0817    3.9560 Q=    0.4100 A=    0.0000 R=    0.0000 C=    0.0000
 XYZ=   -2.8962    9.1754    2.7522 Q=    0.4100 A=    0.0000 R=    0.0000 C=    0.0000
 XYZ=    7.7881    3.4578    3.3324 Q=   -0.8200 A=    0.0000 R=    0.0000 C=    0.0000
 XYZ=    8.0800    3.2128    4.2570 Q=    0.4100 A=    0.0000 R=    0.0000 C=    0.0000
 XYZ=    6.9739    2.9306    3.0892 Q=    0.4100 A=    0.0000 R=    0.0000 C=    0.0000
 XYZ=   -3.8093    4.6056    7.8059 Q=   -0.8200 A=    0.0000 R=    0.0000 C=    0.0000
 XYZ=   -3.9936    4.7316    6.8311 Q=    0.4100 A=    0.0000 R=    0.0000 C=    0.0000
 XYZ=   -2.9072    4.1902    7.9235 Q=    0.4100 A=    0.0000 R=    0.0000 C=    0.0000
 XYZ=    0.9260   -6.2550   -8.0277 Q=   -0.8200 A=    0.0000 R=    0.0000 C=    0.0000
 XYZ=    0.8181   -7.2089   -7.7474 Q=    0.4100 A=    0.0000 R=    0.0000 C=    0.0000
 XYZ=    1.8567   -5.9510   -7.8239 Q=    0.4100 A=    0.0000 R=    0.0000 C=    0.0000
 XYZ=   -3.4408    7.4452    5.1305 Q=   -0.8200 A=    0.0000 R=    0.0000 C=    0.0000
 XYZ=   -4.0721    6.6931    5.3198 Q=    0.4100 A=    0.0000 R=    0.0000 C=    0.0000
 XYZ=   -3.9147    8.3171    5.2537 Q=    0.4100 A=    0.0000 R=    0.0000 C=    0.0000
 XYZ=   -4.0138    4.7333   -7.4794 Q=   -0.8200 A=    0.0000 R=    0.0000 C=    0.0000
 XYZ=   -4.0592    5.6869   -7.1818 Q=    0.4100 A=    0.0000 R=    0.0000 C=    0.0000
 XYZ=   -4.7837    4.5366   -8.0864 Q=    0.4100 A=    0.0000 R=    0.0000 C=    0.0000
 XYZ=    5.7545   -7.8083   -0.6391 Q=   -0.8200 A=    0.0000 R=    0.0000 C=    0.0000
 XYZ=    6.5299   -8.2446   -0.1826 Q=    0.4100 A=    0.0000 R=    0.0000 C=    0.0000
 XYZ=    6.0708   -7.3529   -1.4713 Q=    0.4100 A=    0.0000 R=    0.0000 C=    0.0000
 XYZ=    0.2761    7.6409    5.9910 Q=   -0.8200 A=    0.0000 R=    0.0000 C=    0.0000
 XYZ=    0.6935    6.9444    5.4072 Q=    0.4100 A=    0.0000 R=    0.0000 C=    0.0000
 XYZ=   -0.5836    7.2917    6.3638 Q=    0.4100 A=    0.0000 R=    0.0000 C=    0.0000
 XYZ=   -4.5430    8.4410   -3.1177 Q=   -0.8200 A=    0.0000 R=    0.0000 C=    0.0000
 XYZ=   -4.3780    8.4813   -2.1322 Q=    0.4100 A=    0.0000 R=    0.0000 C=    0.0000
 XYZ=   -4.2934    7.5354   -3.4606 Q=    0.4100 A=    0.0000 R=    0.0000 C=    0.0000
 XYZ=   -6.8562   -4.9803    1.2942 Q=   -0.8200 A=    0.0000 R=    0.0000 C=    0.0000
 XYZ=   -6.1866   -5.4504    0.7192 Q=    0.4100 A=    0.0000 R=    0.0000 C=    0.0000
 XYZ=   -6.5401   -4.9815    2.2429 Q=    0.4100 A=    0.0000 R=    0.0000 C=    0.0000
 XYZ=    1.8544    0.7310  -10.1771 Q=   -0.8200 A=    0.0000 R=    0.0000 C=    0.0000
 XYZ=    1.8744    1.7307  -10.1631 Q=    0.4100 A=    0.0000 R=    0.0000 C=    0.0000
 XYZ=    1.0054    0.4087   -9.7583 Q=    0.4100 A=    0.0000 R=    0.0000 C=    0.0000
 XYZ=    7.0279   -2.9284   -8.2593 Q=   -0.8200 A=    0.0000 R=    0.0000 C=    0.0000
 XYZ=    6.6937   -2.0823   -7.8440 Q=    0.4100 A=    0.0000 R=    0.0000 C=    0.0000
 XYZ=    6.8220   -3.6994   -7.6566 Q=    0.4100 A=    0.0000 R=    0.0000 C=    0.0000
 XYZ=    1.9237    2.9920   -9.9646 Q=   -0.8200 A=    0.0000 R=    0.0000 C=    0.0000
 XYZ=    1.9128    3.2749   -9.0055 Q=    0.4100 A=    0.0000 R=    0.0000 C=    0.0000
 XYZ=    1.8633    3.7999  -10.5510 Q=    0.4100 A=    0.0000 R=    0.0000 C=    0.0000
 XYZ=   -1.5906    3.8175    8.4684 Q=   -0.8200 A=    0.0000 R=    0.0000 C=    0.0000
 XYZ=   -0.6543    4.0244    8.1844 Q=    0.4100 A=    0.0000 R=    0.0000 C=    0.0000
 XYZ=   -1.6237    2.8997    8.8640 Q=    0.4100 A=    0.0000 R=    0.0000 C=    0.0000
 XYZ=    0.0029   -0.9736   -9.9441 Q=   -0.8200 A=    0.0000 R=    0.0000 C=    0.0000
 XYZ=    0.7712   -1.5844  -10.1358 Q=    0.4100 A=    0.0000 R=    0.0000 C=    0.0000
 XYZ=   -0.7514   -1.4999   -9.5516 Q=    0.4100 A=    0.0000 R=    0.0000 C=    0.0000
 XYZ=    9.3894   -2.1736    0.5240 Q=   -0.8200 A=    0.0000 R=    0.0000 C=    0.0000
 XYZ=    9.4973   -3.0093    1.0626 Q=    0.4100 A=    0.0000 R=    0.0000 C=    0.0000
 XYZ=    9.1857   -1.4079    1.1341 Q=    0.4100 A=    0.0000 R=    0.0000 C=    0.0000
 XYZ=   -5.8351   -5.3569   -4.4274 Q=   -0.8200 A=    0.0000 R=    0.0000 C=    0.0000
 XYZ=   -5.7710   -4.5040   -3.9093 Q=    0.4100 A=    0.0000 R=    0.0000 C=    0.0000
 XYZ=   -6.3674   -5.2021   -5.2597 Q=    0.4100 A=    0.0000 R=    0.0000 C=    0.0000
 XYZ=    8.4253    4.0113   -3.6789 Q=   -0.8200 A=    0.0000 R=    0.0000 C=    0.0000
 XYZ=    7.9428    3.9727   -2.8038 Q=    0.4100 A=    0.0000 R=    0.0000 C=    0.0000
 XYZ=    9.4089    4.0853   -3.5141 Q=    0.4100 A=    0.0000 R=    0.0000 C=    0.0000
 XYZ=    3.9940   -1.9040    8.0134 Q=   -0.8200 A=    0.0000 R=    0.0000 C=    0.0000
 XYZ=    4.2596   -1.8690    8.9769 Q=    0.4100 A=    0.0000 R=    0.0000 C=    0.0000
 XYZ=    4.7438   -1.5598    7.4483 Q=    0.4100 A=    0.0000 R=    0.0000 C=    0.0000
 XYZ=   -4.2053   -3.6275    7.9428 Q=   -0.8200 A=    0.0000 R=    0.0000 C=    0.0000
 XYZ=   -3.4862   -3.0444    8.3211 Q=    0.4100 A=    0.0000 R=    0.0000 C=    0.0000
 XYZ=   -4.1685   -4.5270    8.3781 Q=    0.4100 A=    0.0000 R=    0.0000 C=    0.0000
 XYZ=   -1.3741   -6.0436   -7.6544 Q=   -0.8200 A=    0.0000 R=    0.0000 C=    0.0000
 XYZ=   -0.4041   -6.2823   -7.7013 Q=    0.4100 A=    0.0000 R=    0.0000 C=    0.0000
 XYZ=   -1.8638   -6.7402   -7.1302 Q=    0.4100 A=    0.0000 R=    0.0000 C=    0.0000
 XYZ=   -1.2490    1.7281    9.5047 Q=   -0.8200 A=    0.0000 R=    0.0000 C=    0.0000
 XYZ=   -1.8999    0.9864    9.3428 Q=    0.4100 A=    0.0000 R=    0.0000 C=    0.0000
 XYZ=   -1.2079    1.9276   10.4837 Q=    0.4100 A=    0.0000 R=    0.0000 C=    0.0000
 XYZ=   -5.4333   -6.3652   -0.0049 Q=   -0.8200 A=    0.0000 R=    0.0000 C=    0.0000
 XYZ=   -5.7900   -6.2215   -0.9280 Q=    0.4100 A=    0.0000 R=    0.0000 C=    0.0000
 XYZ=   -5.3427   -7.3460    0.1684 Q=    0.4100 A=    0.0000 R=    0.0000 C=    0.0000
 XYZ=  -10.1296    1.1429    2.7290 Q=   -0.8200 A=    0.0000 R=    0.0000 C=    0.0000
 XYZ=   -9.1639    0.9824    2.9329 Q=    0.4100 A=    0.0000 R=    0.0000 C=    0.0000
 XYZ=  -10.4922    0.3720    2.2051 Q=    0.4100 A=    0.0000 R=    0.0000 C=    0.0000
 XYZ=   -2.7932   -0.0632    9.5323 Q=   -0.8200 A=    0.0000 R=    0.0000 C=    0.0000
 XYZ=   -2.6683   -1.0158    9.2548 Q=    0.4100 A=    0.0000 R=    0.0000 C=    0.0000
 XYZ=   -3.4783   -0.0149   10.2591 Q=    0.4100 A=    0.0000 R=    0.0000 C=    0.0000
 XYZ=   -1.8757    6.7748    6.7863 Q=   -0.8200 A=    0.0000 R=    0.0000 C=    0.0000
 XYZ=   -2.5831    7.0686    6.1434 Q=    0.4100 A=    0.0000 R=    0.0000 C=    0.0000
 XYZ=   -2.2852    6.6231    7.6859 Q=    0.4100 A=    0.0000 R=    0.0000 C=    0.0000
 XYZ=   -8.0926    5.6558    3.3544 Q=   -0.8200 A=    0.0000 R=    0.0000 C=    0.0000
 XYZ=   -8.4139    5.4519    4.2792 Q=    0.4100 A=    0.0000 R=    0.0000 C=    0.0000
 XYZ=   -8.4492    4.9707    2.7191 Q=    0.4100 A=    0.0000 R=    0.0000 C=    0.0000
 XYZ=    2.9877   -8.0692   -6.8248 Q=   -0.8200 A=    0.0000 R=    0.0000 C=    0.0000
 XYZ=    3.2011   -7.1278   -7.0863 Q=    0.4100 A=    0.0000 R=    0.0000 C=    0.0000
 XYZ=    3.7604   -8.6616   -7.0526 Q=    0.4100 A=    0.0000 R=    0.0000 C=    0.0000
 XYZ=    0.3913   -4.7860    9.1423 Q=   -0.8200 A=    0.0000 R=    0.0000 C=    0.0000
 XYZ=    0.4410   -4.8595    8.1462 Q=    0.4100 A=    0.0000 R=    0.0000 C=    0.0000
 XYZ=    1.3035   -4.6031    9.5090 Q=    0.4100 A=    0.0000 R=    0.0000 C=    0.0000
 XYZ=   -0.3804    5.2600   -9.8989 Q=   -0.8200 A=    0.0000 R=    0.0000 C=    0.0000
 XYZ=   -0.7946    4.4691  -10.3496 Q=    0.4100 A=    0.0000 R=    0.0000 C=    0.0000
 XYZ=   -0.2690    5.0675   -8.9239 Q=    0.4100 A=    0.0000 R=    0.0000 C=    0.0000
 XYZ=    0.0062    8.8408    3.9395 Q=   -0.8200 A=    0.0000 R=    0.0000 C=    0.0000
 XYZ=   -0.9801    8.8926    3.7823 Q=    0.4100 A=    0.0000 R=    0.0000 C=    0.0000
 XYZ=    0.1790    8.4787    4.8555 Q=    0.4100 A=    0.0000 R=    0.0000 C=    0.0000
 XYZ=    6.6447    5.5434    3.1444 Q=   -0.8200 A=    0.0000 R=    0.0000 C=    0.0000
 XYZ=    5.7135    5.3130    3.4269 Q=    0.4100 A=    0.0000 R=    0.0000 C=    0.0000
 XYZ=    7.2133    4.7211    3.1681 Q=    0.4100 A=    0.0000 R=    0.0000 C=    0.0000
 XYZ=    0.2834   -4.7586   -9.9859 Q=   -0.8200 A=    0.0000 R=    0.0000 C=    0.0000
 XYZ=    0.7473   -3.8978  -10.1956 Q=    0.4100 A=    0.0000 R=    0.0000 C=    0.0000
 XYZ=    0.6970   -5.1709   -9.1741 Q=    0.4100 A=    0.0000 R=    0.0000 C=    0.0000
 XYZ=   -0.9935   -9.4542    3.5298 Q=   -0.8200 A=    0.0000 R=    0.0000 C=    0.0000
 XYZ=   -0.9578   -9.9209    2.6461 Q=    0.4100 A=    0.0000 R=    0.0000 C=    0.0000
 XYZ=   -1.2294   -8.4926    3.3895 Q=    0.4100 A=    0.0000 R=    0.0000 C=    0.0000
 XYZ=   -6.8532    3.2855   -6.9788 Q=   -0.8200 A=    0.0000 R=    0.0000 C=    0.0000
 XYZ=   -6.4907    3.9850   -7.5946 Q=    0.4100 A=    0.0000 R=    0.0000 C=    0.0000
 XYZ=   -6.5206    2.3863   -7.2632 Q=    0.4100 A=    0.0000 R=    0.0000 C=    0.0000
 XYZ=    7.0828   -7.7253    2.4568 Q=   -0.8200 A=    0.0000 R=    0.0000 C=    0.0000
 XYZ=    7.4130   -6.8009    2.2660 Q=    0.4100 A=    0.0000 R=    0.0000 C=    0.0000
 XYZ=    6.0893   -7.7077    2.5695 Q=    0.4100 A=    0.0000 R=    0.0000 C=    0.0000
 XYZ=    6.8004   -4.9397   -7.2320 Q=   -0.8200 A=    0.0000 R=    0.0000 C=    0.0000
 XYZ=    7.5446   -5.4798   -6.8389 Q=    0.4100 A=    0.0000 R=    0.0000 C=    0.0000
 XYZ=    6.3628   -5.4596   -7.9657 Q=    0.4100 A=    0.0000 R=    0.0000 C=    0.0000
 XYZ=   -3.0219   -0.2885  -10.2046 Q=   -0.8200 A=    0.0000 R=    0.0000 C=    0.0000
 XYZ=   -2.6931   -1.0733   -9.6792 Q=    0.4100 A=    0.0000 R=    0.0000 C=    0.0000
 XYZ=   -3.9403   -0.4804  -10.5507 Q=    0.4100 A=    0.0000 R=    0.0000 C=    0.0000
 XYZ=    6.0645   -1.1522    6.8902 Q=   -0.8200 A=    0.0000 R=    0.0000 C=    0.0000
 XYZ=    6.1712   -1.0690    7.8810 Q=    0.4100 A=    0.0000 R=    0.0000 C=    0.0000
 XYZ=    6.9345   -1.4311    6.4835 Q=    0.4100 A=    0.0000 R=    0.0000 C=    0.0000
 XYZ=    1.5398   -2.8944  -10.5539 Q=   -0.8200 A=    0.0000 R=    0.0000 C=    0.0000
 XYZ=    2.4697   -2.6651  -10.2664 Q=    0.4100 A=    0.0000 R=    0.0000 C=    0.0000
 XYZ=    1.4485   -2.7435  -11.5383 Q=    0.4100 A=    0.0000 R=    0.0000 C=    0.0000
 XYZ=   -7.4857   -3.7671    5.3269 Q=   -0.8200 A=    0.0000 R=    0.0000 C=    0.0000
 XYZ=   -8.1169   -3.1881    4.8108 Q=    0.4100 A=    0.0000 R=    0.0000 C=    0.0000
 XYZ=   -6.9857   -3.2080    5.9883 Q=    0.4100 A=    0.0000 R=    0.0000 C=    0.0000
 XYZ=   -2.9479    9.2806   -4.6656 Q=   -0.8200 A=    0.0000 R=    0.0000 C=    0.0000
 XYZ=   -3.6326    8.9152   -4.0349 Q=    0.4100 A=    0.0000 R=    0.0000 C=    0.0000
 XYZ=   -2.0388    8.9721   -4.3857 Q=    0.4100 A=    0.0000 R=    0.0000 C=    0.0000
 XYZ=    9.6941   -4.0264    1.8291 Q=   -0.8200 A=    0.0000 R=    0.0000 C=    0.0000
 XYZ=    8.9761   -4.6436    2.1512 Q=    0.4100 A=    0.0000 R=    0.0000 C=    0.0000
 XYZ=   10.4908   -4.5607    1.5467 Q=    0.4100 A=    0.0000 R=    0.0000 C=    0.0000
 XYZ=    9.9842    0.8006   -4.1083 Q=   -0.8200 A=    0.0000 R=    0.0000 C=    0.0000
 XYZ=   10.1149    1.3071   -3.2560 Q=    0.4100 A=    0.0000 R=    0.0000 C=    0.0000
 XYZ=   10.0045   -0.1811   -3.9190 Q=    0.4100 A=    0.0000 R=    0.0000 C=    0.0000
 XYZ=   10.3661    2.0509   -2.1373 Q=   -0.8200 A=    0.0000 R=    0.0000 C=    0.0000
 XYZ=    9.6560    2.4148   -1.5345 Q=    0.4100 A=    0.0000 R=    0.0000 C=    0.0000
 XYZ=   10.9460    1.4176   -1.6247 Q=    0.4100 A=    0.0000 R=    0.0000 C=    0.0000
 XYZ=    8.3899    2.3955    5.3558 Q=   -0.8200 A=    0.0000 R=    0.0000 C=    0.0000
 XYZ=    7.6331    1.8011    5.0836 Q=    0.4100 A=    0.0000 R=    0.0000 C=    0.0000
 XYZ=    9.1812    1.8359    5.6022 Q=    0.4100 A=    0.0000 R=    0.0000 C=    0.0000
 XYZ=  -10.0713    4.1247   -0.4540 Q=   -0.8200 A=    0.0000 R=    0.0000 C=    0.0000
 XYZ=   -9.4348    4.5412   -1.1030 Q=    0.4100 A=    0.0000 R=    0.0000 C=    0.0000
 XYZ=   -9.7809    4.3353    0.4795 Q=    0.4100 A=    0.0000 R=    0.0000 C=    0.0000
 XYZ=    0.5399   10.8229    0.4204 Q=   -0.8200 A=    0.0000 R=    0.0000 C=    0.0000
 XYZ=    1.4364   11.2317    0.2490 Q=    0.4100 A=    0.0000 R=    0.0000 C=    0.0000
 XYZ=    0.4873    9.9330   -0.0328 Q=    0.4100 A=    0.0000 R=    0.0000 C=    0.0000
 XYZ=  -10.5881   -0.9526    1.4624 Q=   -0.8200 A=    0.0000 R=    0.0000 C=    0.0000
 XYZ=  -10.3835   -0.6337    0.5369 Q=    0.4100 A=    0.0000 R=    0.0000 C=    0.0000
 XYZ=   -9.7531   -1.3036    1.8861 Q=    0.4100 A=    0.0000 R=    0.0000 C=    0.0000
 XYZ=   -8.1457   -0.7061    6.5008 Q=   -0.8200 A=    0.0000 R=    0.0000 C=    0.0000
 XYZ=   -8.9176   -1.2185    6.1242 Q=    0.4100 A=    0.0000 R=    0.0000 C=    0.0000
 XYZ=   -7.4192   -1.3419    6.7617 Q=    0.4100 A=    0.0000 R=    0.0000 C=    0.0000
 XYZ=    3.0516   -0.7707  -11.3478 Q=   -0.8200 A=    0.0000 R=    0.0000 C=    0.0000
 XYZ=    2.6082   -0.0089  -10.8754 Q=    0.4100 A=    0.0000 R=    0.0000 C=    0.0000
 XYZ=    3.4806   -1.3749  -10.6763 Q=    0.4100 A=    0.0000 R=    0.0000 C=    0.0000
 XYZ=   -1.5328   -9.7472   -0.2635 Q=   -0.8200 A=    0.0000 R=    0.0000 C=    0.0000
 XYZ=   -1.1393  -10.3072    0.4656 Q=    0.4100 A=    0.0000 R=    0.0000 C=    0.0000
 XYZ=   -2.0667  -10.3277   -0.8783 Q=    0.4100 A=    0.0000 R=    0.0000 C=    0.0000
 XYZ=    9.3459    2.8379    1.5722 Q=   -0.8200 A=    0.0000 R=    0.0000 C=    0.0000
 XYZ=    8.7439    3.1027    2.3256 Q=    0.4100 A=    0.0000 R=    0.0000 C=    0.0000
 XYZ=   10.2757    3.1531    1.7620 Q=    0.4100 A=    0.0000 R=    0.0000 C=    0.0000
 XYZ=    2.1879    2.3330   10.7995 Q=   -0.8200 A=    0.0000 R=    0.0000 C=    0.0000
 XYZ=    3.1723    2.4174   10.6447 Q=    0.4100 A=    0.0000 R=    0.0000 C=    0.0000
 XYZ=    1.7298    2.1368    9.9324 Q=    0.4100 A=    0.0000 R=    0.0000 C=    0.0000
 XYZ=   -7.6954    8.0999    3.1331 Q=   -0.8200 A=    0.0000 R=    0.0000 C=    0.0000
 XYZ=   -7.8064    7.1062    3.1517 Q=    0.4100 A=    0.0000 R=    0.0000 C=    0.0000
 XYZ=   -7.4562    8.4256    4.0479 Q=    0.4100 A=    0.0000 R=    0.0000 C=    0.0000
 XYZ=   -0.2174   -8.1983    5.5479 Q=   -0.8200 A=    0.0000 R=    0.0000 C=    0.0000
 XYZ=   -1.0873   -7.9910    5.9956 Q=    0.4100 A=    0.0000 R=    0.0000 C=    0.0000
 XYZ=   -0.3729   -8.8447    4.8008 Q=    0.4100 A=    0.0000 R=    0.0000 C=    0.0000
 XYZ=    7.5145    5.7957   -5.0074 Q=   -0.8200 A=    0.0000 R=    0.0000 C=    0.0000
 XYZ=    7.9240    5.2019   -4.3148 Q=    0.4100 A=    0.0000 R=    0.0000 C=    0.0000
 XYZ=    7.7896    5.4854   -5.9174 Q=    0.4100 A=    0.0000 R=    0.0000 C=    0.0000
 XYZ=    6.2918    6.6945    1.0755 Q=   -0.8200 A=    0.0000 R=    0.0000 C=    0.0000
 XYZ=    6.5661    7.6275    1.3087 Q=    0.4100 A=    0.0000 R=    0.0000 C=    0.0000
 XYZ=    6.4883    6.0871    1.8452 Q=    0.4100 A=    0.0000 R=    0.0000 C=    0.0000
 XYZ=    9.8839   -3.9988   -6.4231 Q=   -0.8200 A=    0.0000 R=    0.0000 C=    0.0000
 XYZ=    9.3795   -3.4320   -5.7716 Q=    0.4100 A=    0.0000 R=    0.0000 C=    0.0000
 XYZ=    9.5067   -3.8683   -7.3400 Q=    0.4100 A=    0.0000 R=    0.0000 C=    0.0000
 XYZ=   11.2292   -2.0640   -0.8260 Q=   -0.8200 A=    0.0000 R=    0.0000 C=    0.0000
 XYZ=   12.0192   -2.2379   -0.2380 Q=    0.4100 A=    0.0000 R=    0.0000 C=    0.0000
 XYZ=   10.4035   -2.0023   -0.2652 Q=    0.4100 A=    0.0000 R=    0.0000 C=    0.0000
 XYZ=   -6.2690   -6.4308   -2.2885 Q=   -0.8200 A=    0.0000 R=    0.0000 C=    0.0000
 XYZ=   -7.2665   -6.4800   -2.2359 Q=    0.4100 A=    0.0000 R=    0.0000 C=    0.0000
 XYZ=   -5.9972   -6.1505   -3.2091 Q=    0.4100 A=    0.0000 R=    0.0000 C=    0.0000
 XYZ=   -9.4477   -2.5336    4.4386 Q=   -0.8200 A=    0.0000 R=    0.0000 C=    0.0000
 XYZ=   -9.1745   -2.3407    3.4962 Q=    0.4100 A=    0.0000 R=    0.0000 C=    0.0000
 XYZ=   -9.7734   -3.4767    4.5048 Q=    0.4100 A=    0.0000 R=    0.0000 C=    0.0000
 XYZ=   -5.9328   -7.4783    5.5551 Q=   -0.8200 A=    0.0000 R=    0.0000 C=    0.0000
 XYZ=   -5.2239   -6.9301    5.1113 Q=    0.4100 A=    0.0000 R=    0.0000 C=    0.0000
 XYZ=   -6.6841   -6.8834    5.8407 Q=    0.4100 A=    0.0000 R=    0.0000 C=    0.0000
 XYZ=    0.8052   -8.6302   -7.4800 Q=   -0.8200 A=    0.0000 R=    0.0000 C=    0.0000
 XYZ=    0.2946   -9.1433   -6.7900 Q=    0.4100 A=    0.0000 R=    0.0000 C=    0.0000
 XYZ=    1.7136   -8.4080   -7.1256 Q=    0.4100 A=    0.0000 R=    0.0000 C=    0.0000
 XYZ=   -0.8851   -3.1839   10.3563 Q=   -0.8200 A=    0.0000 R=    0.0000 C=    0.0000
 XYZ=   -0.3816   -3.8436    9.7984 Q=    0.4100 A=    0.0000 R=    0.0000 C=    0.0000
 XYZ=   -1.5262   -3.6701   10.9501 Q=    0.4100 A=    0.0000 R=    0.0000 C=    0.0000
 XYZ=   -8.6238    5.1376    5.5720 Q=   -0.8200 A=    0.0000 R=    0.0000 C=    0.0000
 XYZ=   -8.2217    4.2489    5.7925 Q=    0.4100 A=    0.0000 R=    0.0000 C=    0.0000
 XYZ=   -8.0103    5.8659    5.8773 Q=    0.4100 A=    0.0000 R=    0.0000 C=    0.0000
 XYZ=  -10.6484    1.8592   -0.9527 Q=   -0.8200 A=    0.0000 R=    0.0000 C=    0.0000
 XYZ=  -11.6361    1.7214   -0.8787 Q=    0.4100 A=    0.0000 R=    0.0000 C=    0.0000
 XYZ=  -10.4247    2.8039   -0.7126 Q=    0.4100 A=    0.0000 R=    0.0000 C=    0.0000
 XYZ=   -1.5504    3.5624  -11.0426 Q=   -0.8200 A=    0.0000 R=    0.0000 C=    0.0000
 XYZ=   -2.1926    3.0267  -10.4943 Q=    0.4100 A=    0.0000 R=    0.0000 C=    0.0000
 XYZ=   -0.9784    2.9456  -11.5833 Q=    0.4100 A=    0.0000 R=    0.0000 C=    0.0000
 XYZ=   10.5403    0.7279    1.4204 Q=   -0.8200 A=    0.0000 R=    0.0000 C=    0.0000
 XYZ=   10.1831   -0.0143    1.9875 Q=    0.4100 A=    0.0000 R=    0.0000 C=    0.0000
 XYZ=    9.9637    1.5377    1.5295 Q=    0.4100 A=    0.0000 R=    0.0000 C=    0.0000
 XYZ=   -6.0551    4.4301    8.4786 Q=   -0.8200 A=    0.0000 R=    0.0000 C=    0.0000
 XYZ=   -6.4028    5.3646    8.4027 Q=    0.4100 A=    0.0000 R=    0.0000 C=    0.0000
 XYZ=   -5.0859    4.4141    8.2327 Q=    0.4100 A=    0.0000 R=    0.0000 C=    0.0000
 XYZ=   -4.9092    2.9618  -10.4154 Q=   -0.8200 A=    0.0000 R=    0.0000 C=    0.0000
 XYZ=   -5.7116    2.3779  -10.5385 Q=    0.4100 A=    0.0000 R=    0.0000 C=    0.0000
 XYZ=   -4.1796    2.4374   -9.9763 Q=    0.4100 A=    0.0000 R=    0.0000 C=    0.0000
 XYZ=   -5.3537    9.7399    0.4226 Q=   -0.8200 A=    0.0000 R=    0.0000 C=    0.0000
 XYZ=   -5.5844   10.5717   -0.0824 Q=    0.4100 A=    0.0000 R=    0.0000 C=    0.0000
 XYZ=   -6.1827    9.2017    0.5747 Q=    0.4100 A=    0.0000 R=    0.0000 C=    0.0000
 XYZ=   -2.0378   -7.5393    6.6756 Q=   -0.8200 A=    0.0000 R=    0.0000 C=    0.0000
 XYZ=   -1.9989   -6.9971    7.5149 Q=    0.4100 A=    0.0000 R=    0.0000 C=    0.0000
 XYZ=   -2.9401   -7.9628    6.5940 Q=    0.4100 A=    0.0000 R=    0.0000 C=    0.0000
 XYZ=   -1.1780   -0.1852  -11.6735 Q=   -0.8200 A=    0.0000 R=    0.0000 C=    0.0000
 XYZ=   -0.5189   -0.5056  -10.9932 Q=    0.4100 A=    0.0000 R=    0.0000 C=    0.0000
 XYZ=   -2.0932   -0.1721  -11.2706 Q=    0.4100 A=    0.0000 R=    0.0000 C=    0.0000
 XYZ=   -7.4135    8.3648    0.6089 Q=   -0.8200 A=    0.0000 R=    0.0000 C=    0.0000
 XYZ=   -7.9436    9.1518    0.2933 Q=    0.4100 A=    0.0000 R=    0.0000 C=    0.0000
 XYZ=   -7.4295    8.3314    1.6083 Q=    0.4100 A=    0.0000 R=    0.0000 C=    0.0000
 XYZ=   -1.6682   -6.2293    8.7805 Q=   -0.8200 A=    0.0000 R=    0.0000 C=    0.0000
 XYZ=   -1.0569   -5.4568    8.9526 Q=    0.4100 A=    0.0000 R=    0.0000 C=    0.0000
 XYZ=   -2.5636   -6.0422    9.1847 Q=    0.4100 A=    0.0000 R=    0.0000 C=    0.0000
 XYZ=    5.5331    1.1996    8.4277 Q=   -0.8200 A=    0.0000 R=    0.0000 C=    0.0000
 XYZ=    6.2017    1.7100    7.8869 Q=    0.4100 A=    0.0000 R=    0.0000 C=    0.0000
 XYZ=    5.0464    1.8277    9.0350 Q=    0.4100 A=    0.0000 R=    0.0000 C=    0.0000
 XYZ=   -2.9049   -7.7191   -6.4867 Q=   -0.8200 A=    0.0000 R=    0.0000 C=    0.0000
 XYZ=   -3.3185   -8.0333   -7.3412 Q=    0.4100 A=    0.0000 R=    0.0000 C=    0.0000
 XYZ=   -3.6240   -7.5316   -5.8175 Q=    0.4100 A=    0.0000 R=    0.0000 C=    0.0000
 XYZ=  -10.2239    2.0228   -3.1729 Q=   -0.8200 A=    0.0000 R=    0.0000 C=    0.0000
 XYZ=  -10.3595    1.8584   -2.1959 Q=    0.4100 A=    0.0000 R=    0.0000 C=    0.0000
 XYZ=  -10.9273    1.5383   -3.6931 Q=    0.4100 A=    0.0000 R=    0.0000 C=    0.0000
 XYZ=   -4.0155   10.2253    2.2232 Q=   -0.8200 A=    0.0000 R=    0.0000 C=    0.0000
 XYZ=   -4.5352   10.6558    2.9613 Q=    0.4100 A=    0.0000 R=    0.0000 C=    0.0000
 XYZ=   -4.6354    9.9816    1.4773 Q=    0.4100 A=    0.0000 R=    0.0000 C=    0.0000
 XYZ=    7.8739    5.9082   -0.6110 Q=   -0.8200 A=    0.0000 R=    0.0000 C=    0.0000
 XYZ=    7.1373    6.4117   -0.1595 Q=    0.4100 A=    0.0000 R=    0.0000 C=    0.0000
 XYZ=    8.4371    5.4523    0.0782 Q=    0.4100 A=    0.0000 R=    0.0000 C=    0.0000
 XYZ=   -3.4254   -9.5779    1.4334 Q=   -0.8200 A=    0.0000 R=    0.0000 C=    0.0000
 XYZ=   -4.2355   -9.0977    1.0968 Q=    0.4100 A=    0.0000 R=    0.0000 C=    0.0000
 XYZ=   -2.7421   -9.6298    0.7051 Q=    0.4100 A=    0.0000 R=    0.0000 C=    0.0000
 XYZ=    0.4732   10.8448    2.8793 Q=   -0.8200 A=    0.0000 R=    0.0000 C=    0.0000
 XYZ=    0.3226    9.9820    3.3619 Q=    0.4100 A=    0.0000 R=    0.0000 C=    0.0000
 XYZ=    0.2547   10.7272    1.9105 Q=    0.4100 A=    0.0000 R=    0.0000 C=    0.0000
 XYZ=    5.8025   -3.8831  -10.1884 Q=   -0.8200 A=    0.0000 R=    0.0000 C=    0.0000
 XYZ=    6.1612   -3.7797  -11.1161 Q=    0.4100 A=    0.0000 R=    0.0000 C=    0.0000
 XYZ=    6.4045   -3.4115   -9.5439 Q=    0.4100 A=    0.0000 R=    0.0000 C=    0.0000
 XYZ=    7.5532   -8.8065    0.5217 Q=   -0.8200 A=    0.0000 R=    0.0000 C=    0.0000
 XYZ=    7.3435   -8.3035    1.3602 Q=    0.4100 A=    0.0000 R=    0.0000 C=    0.0000
 XYZ=    7.7850   -9.7522    0.7495 Q=    0.4100 A=    0.0000 R=    0.0000 C=    0.0000
 XYZ=   -1.9103   -4.0869  -10.7210 Q=   -0.8200 A=    0.0000 R=    0.0000 C=    0.0000
 XYZ=   -0.9992   -4.3203  -10.3812 Q=    0.4100 A=    0.0000 R=    0.0000 C=    0.0000
 XYZ=   -1.9025   -4.0843  -11.7210 Q=    0.4100 A=    0.0000 R=    0.0000 C=    0.0000
 XYZ=    8.4454   -6.9697   -3.9869 Q=   -0.8200 A=    0.0000 R=    0.0000 C=    0.0000
 XYZ=    8.4853   -6.6661   -4.9389 Q=    0.4100 A=    0.0000 R=    0.0000 C=    0.0000
 XYZ=    9.3738   -7.0570   -3.6257 Q=    0.4100 A=    0.0000 R=    0.0000 C=    0.0000
 XYZ=   -3.3558    6.5168    8.9647 Q=   -0.8200 A=    0.0000 R=    0.0000 C=    0.0000
 XYZ=   -3.6706    5.7204    8.4482 Q=    0.4100 A=    0.0000 R=    0.0000 C=    0.0000
 XYZ=   -4.0931    6.8429    9.5564 Q=    0.4100 A=    0.0000 R=    0.0000 C=    0.0000
 XYZ=   -2.5836    4.7762   10.4210 Q=   -0.8200 A=    0.0000 R=    0.0000 C=    0.0000
 XYZ=   -2.8725    5.6936   10.1469 Q=    0.4100 A=    0.0000 R=    0.0000 C=    0.0000
 XYZ=   -2.2462    4.2802    9.6209 Q=    0.4100 A=    0.0000 R=    0.0000 C=    0.0000
 XYZ=    5.6092    4.1884    7.3902 Q=   -0.8200 A=    0.0000 R=    0.0000 C=    0.0000
 XYZ=    5.9297    5.0984    7.1272 Q=    0.4100 A=    0.0000 R=    0.0000 C=    0.0000
 XYZ=    6.3890    3.5656    7.4528 Q=    0.4100 A=    0.0000 R=    0.0000 C=    0.0000
 XYZ=   -9.7964    3.8618   -4.4822 Q=   -0.8200 A=    0.0000 R=    0.0000 C=    0.0000
 XYZ=   -9.2502    4.5199   -3.9639 Q=    0.4100 A=    0.0000 R=    0.0000 C=    0.0000
 XYZ=   -9.9841    3.0619   -3.9120 Q=    0.4100 A=    0.0000 R=    0.0000 C=    0.0000
 XYZ=   -5.3746   -7.7001   -4.9787 Q=   -0.8200 A=    0.0000 R=    0.0000 C=    0.0000
 XYZ=   -5.4185   -6.7456   -4.6836 Q=    0.4100 A=    0.0000 R=    0.0000 C=    0.0000
 XYZ=   -5.6112   -8.2972   -4.2122 Q=    0.4100 A=    0.0000 R=    0.0000 C=    0.0000
 XYZ=    5.4320   -6.0500   -9.1374 Q=   -0.8200 A=    0.0000 R=    0.0000 C=    0.0000
 XYZ=    5.9246   -6.6554   -9.7626 Q=    0.4100 A=    0.0000 R=    0.0000 C=    0.0000
 XYZ=    5.3656   -5.1372   -9.5404 Q=    0.4100 A=    0.0000 R=    0.0000 C=    0.0000
 XYZ=  -10.7526    3.3809    3.0493 Q=   -0.8200 A=    0.0000 R=    0.0000 C=    0.0000
 XYZ=  -11.6503    3.4445    3.4853 Q=    0.4100 A=    0.0000 R=    0.0000 C=    0.0000
 XYZ=  -10.5704    2.4301    2.7989 Q=    0.4100 A=    0.0000 R=    0.0000 C=    0.0000
 XYZ=   -2.9154   -6.8971   -9.2254 Q=   -0.8200 A=    0.0000 R=    0.0000 C=    0.0000
 XYZ=   -3.3702   -6.1802   -9.7540 Q=    0.4100 A=    0.0000 R=    0.0000 C=    0.0000
 XYZ=   -2.1607   -6.4988   -8.7041 Q=    0.4100 A=    0.0000 R=    0.0000 C=    0.0000
 XYZ=   -7.1044    2.4779    7.9903 Q=   -0.8200 A=    0.0000 R=    0.0000 C=    0.0000
 XYZ=   -6.9730    1.7848    8.6992 Q=    0.4100 A=    0.0000 R=    0.0000 C=    0.0000
 XYZ=   -6.6779    3.3350    8.2791 Q=    0.4100 A=    0.0000 R=    0.0000 C=    0.0000
 XYZ=   -8.2302   -7.1564    2.1639 Q=   -0.8200 A=    0.0000 R=    0.0000 C=    0.0000
 XYZ=   -8.9724   -7.3451    1.5208 Q=    0.4100 A=    0.0000 R=    0.0000 C=    0.0000
 XYZ=   -7.8347   -6.2602    1.9627 Q=    0.4100 A=    0.0000 R=    0.0000 C=    0.0000
 XYZ=    9.1298   -3.7697   -8.6877 Q=   -0.8200 A=    0.0000 R=    0.0000 C=    0.0000
 XYZ=    8.2797   -3.2704   -8.5201 Q=    0.4100 A=    0.0000 R=    0.0000 C=    0.0000
 XYZ=    9.0561   -4.2739   -9.5481 Q=    0.4100 A=    0.0000 R=    0.0000 C=    0.0000
 XYZ=   -1.4590   -9.6622   -6.1155 Q=   -0.8200 A=    0.0000 R=    0.0000 C=    0.0000
 XYZ=   -2.1135   -8.9229   -5.9569 Q=    0.4100 A=    0.0000 R=    0.0000 C=    0.0000
 XYZ=   -1.7040  -10.1501   -6.9533 Q=    0.4100 A=    0.0000 R=    0.0000 C=    0.0000
 XYZ=   -6.8470   -4.5309   -6.4952 Q=   -0.8200 A=    0.0000 R=    0.0000 C=    0.0000
 XYZ=   -6.4632   -4.9542   -7.3159 Q=    0.4100 A=    0.0000 R=    0.0000 C=    0.0000
 XYZ=   -7.5134   -3.8340   -6.7602 Q=    0.4100 A=    0.0000 R=    0.0000 C=    0.0000
 XYZ=   -0.1051    1.8855  -12.1292 Q=   -0.8200 A=    0.0000 R=    0.0000 C=    0.0000
 XYZ=    0.6352    1.9085  -11.4574 Q=    0.4100 A=    0.0000 R=    0.0000 C=    0.0000
 XYZ=   -0.5262    0.9785  -12.1303 Q=    0.4100 A=    0.0000 R=    0.0000 C=    0.0000
 XYZ=   -9.1471    2.9489   -6.7859 Q=   -0.8200 A=    0.0000 R=    0.0000 C=    0.0000
 XYZ=   -9.5106    3.2658   -5.9099 Q=    0.4100 A=    0.0000 R=    0.0000 C=    0.0000
 XYZ=   -8.2265    3.3165   -6.9173 Q=    0.4100 A=    0.0000 R=    0.0000 C=    0.0000
 XYZ=   -6.1162    4.4114   -8.8105 Q=   -0.8200 A=    0.0000 R=    0.0000 C=    0.0000
 XYZ=   -6.4914    5.2120   -9.2777 Q=    0.4100 A=    0.0000 R=    0.0000 C=    0.0000
 XYZ=   -5.7027    3.7968   -9.4823 Q=    0.4100 A=    0.0000 R=    0.0000 C=    0.0000
 XYZ=   11.5283    0.4591   -0.8164 Q=   -0.8200 A=    0.0000 R=    0.0000 C=    0.0000
 XYZ=   11.3077   -0.4811   -1.0759 Q=    0.4100 A=    0.0000 R=    0.0000 C=    0.0000
 XYZ=   11.1556    0.6504    0.0917 Q=    0.4100 A=    0.0000 R=    0.0000 C=    0.0000
 XYZ=  -11.8454   -0.9198   -1.5218 Q=   -0.8200 A=    0.0000 R=    0.0000 C=    0.0000
 XYZ=  -12.3267   -0.0583   -1.3602 Q=    0.4100 A=    0.0000 R=    0.0000 C=    0.0000
 XYZ=  -10.8663   -0.7889   -1.3659 Q=    0.4100 A=    0.0000 R=    0.0000 C=    0.0000
 XYZ=   -7.0089    6.6682    6.4157 Q=   -0.8200 A=    0.0000 R=    0.0000 C=    0.0000
 XYZ=   -7.1047    7.5804    6.0173 Q=    0.4100 A=    0.0000 R=    0.0000 C=    0.0000
 XYZ=   -7.0026    6.7392    7.4132 Q=    0.4100 A=    0.0000 R=    0.0000 C=    0.0000
 XYZ=   -7.8549   -6.0280    5.9197 Q=   -0.8200 A=    0.0000 R=    0.0000 C=    0.0000
 XYZ=   -8.5371   -6.4407    5.3160 Q=    0.4100 A=    0.0000 R=    0.0000 C=    0.0000
 XYZ=   -7.7459   -5.0614    5.6879 Q=    0.4100 A=    0.0000 R=    0.0000 C=    0.0000
 XYZ=    8.7339   -5.9982   -6.2784 Q=   -0.8200 A=    0.0000 R=    0.0000 C=    0.0000
 XYZ=    9.3761   -5.2632   -6.0610 Q=    0.4100 A=    0.0000 R=    0.0000 C=    0.0000
 XYZ=    9.1634   -6.6385   -6.9154 Q=    0.4100 A=    0.0000 R=    0.0000 C=    0.0000
 XYZ=   -2.0290    7.0993  -10.1899 Q=   -0.8200 A=    0.0000 R=    0.0000 C=    0.0000
 XYZ=   -1.9257    8.0544   -9.9122 Q=    0.4100 A=    0.0000 R=    0.0000 C=    0.0000
 XYZ=   -1.3032    6.5511   -9.7744 Q=    0.4100 A=    0.0000 R=    0.0000 C=    0.0000
 XYZ=   -7.3376    0.0996   -8.5930 Q=   -0.8200 A=    0.0000 R=    0.0000 C=    0.0000
 XYZ=   -8.2479    0.4982   -8.7053 Q=    0.4100 A=    0.0000 R=    0.0000 C=    0.0000
 XYZ=   -7.4238   -0.8745   -8.3842 Q=    0.4100 A=    0.0000 R=    0.0000 C=    0.0000
 XYZ=   10.0874   -5.8899   -0.7886 Q=   -0.8200 A=    0.0000 R=    0.0000 C=    0.0000
 XYZ=   10.2909   -5.9288   -1.7669 Q=    0.4100 A=    0.0000 R=    0.0000 C=    0.0000
 XYZ=    9.8696   -6.8077   -0.4567 Q=    0.4100 A=    0.0000 R=    0.0000 C=    0.0000
 XYZ=    6.6860   -0.4777    9.2905 Q=   -0.8200 A=    0.0000 R=    0.0000 C=    0.0000
 XYZ=    6.2112    0.2856    8.8523 Q=    0.4100 A=    0.0000 R=    0.0000 C=    0.0000
 XYZ=    7.5137   -0.1416    9.7397 Q=    0.4100 A=    0.0000 R=    0.0000 C=    0.0000
 XYZ=    7.3099    2.4179    7.4327 Q=   -0.8200 A=    0.0000 R=    0.0000 C=    0.0000
 XYZ=    7.7969    2.3968    6.5595 Q=    0.4100 A=    0.0000 R=    0.0000 C=    0.0000
 XYZ=    7.9652    2.5495    8.1766 Q=    0.4100 A=    0.0000 R=    0.0000 C=    0.0000
 XYZ=   -5.4470   -8.6732    0.3375 Q=   -0.8200 A=    0.0000 R=    0.0000 C=    0.0000
 XYZ=   -6.0248   -8.9561    1.1032 Q=    0.4100 A=    0.0000 R=    0.0000 C=    0.0000
 XYZ=   -5.3875   -9.4174   -0.3278 Q=    0.4100 A=    0.0000 R=    0.0000 C=    0.0000
 XYZ=   -5.3686   10.3284   -4.4794 Q=   -0.8200 A=    0.0000 R=    0.0000 C=    0.0000
 XYZ=   -5.1420    9.4111   -4.1520 Q=    0.4100 A=    0.0000 R=    0.0000 C=    0.0000
 XYZ=   -4.8396   10.5280   -5.3042 Q=    0.4100 A=    0.0000 R=    0.0000 C=    0.0000
 XYZ=   -8.9444    1.0922    7.8734 Q=   -0.8200 A=    0.0000 R=    0.0000 C=    0.0000
 XYZ=   -8.6970    0.4138    7.1816 Q=    0.4100 A=    0.0000 R=    0.0000 C=    0.0000
 XYZ=   -8.1999    1.7522    7.9742 Q=    0.4100 A=    0.0000 R=    0.0000 C=    0.0000
 XYZ=    9.5285   -8.1263   -0.7303 Q=   -0.8200 A=    0.0000 R=    0.0000 C=    0.0000
 XYZ=    8.6914   -8.0614   -0.1871 Q=    0.4100 A=    0.0000 R=    0.0000 C=    0.0000
 XYZ=   10.0960   -8.8716   -0.3802 Q=    0.4100 A=    0.0000 R=    0.0000 C=    0.0000
 XYZ=   -4.5546    9.5913    5.1494 Q=   -0.8200 A=    0.0000 R=    0.0000 C=    0.0000
 XYZ=   -4.1227   10.1705    5.8408 Q=    0.4100 A=    0.0000 R=    0.0000 C=    0.0000
 XYZ=   -5.0451   10.1650    4.4933 Q=    0.4100 A=    0.0000 R=    0.0000 C=    0.0000
 XYZ=    1.2490   -6.6451  -11.1873 Q=   -0.8200 A=    0.0000 R=    0.0000 C=    0.0000
 XYZ=    0.8276   -5.9003  -10.6700 Q=    0.4100 A=    0.0000 R=    0.0000 C=    0.0000
 XYZ=    2.2353   -6.6493  -11.0220 Q=    0.4100 A=    0.0000 R=    0.0000 C=    0.0000
 XYZ=   10.9313    4.1778   -3.3116 Q=   -0.8200 A=    0.0000 R=    0.0000 C=    0.0000
 XYZ=   11.2552    4.7177   -2.5346 Q=    0.4100 A=    0.0000 R=    0.0000 C=    0.0000
 XYZ=   10.8070    3.2269   -3.0280 Q=    0.4100 A=    0.0000 R=    0.0000 C=    0.0000
 XYZ=    8.0104    5.0059   -7.2483 Q=   -0.8200 A=    0.0000 R=    0.0000 C=    0.0000
 XYZ=    9.0037    5.0496   -7.3558 Q=    0.4100 A=    0.0000 R=    0.0000 C=    0.0000
 XYZ=    7.5772    5.6320   -7.8966 Q=    0.4100 A=    0.0000 R=    0.0000 C=    0.0000
 XYZ=   -6.9506    8.7874    5.4741 Q=   -0.8200 A=    0.0000 R=    0.0000 C=    0.0000
 XYZ=   -7.3534    9.5823    5.9280 Q=    0.4100 A=    0.0000 R=    0.0000 C=    0.0000
 XYZ=   -5.9621    8.9155    5.3929 Q=    0.4100 A=    0.0000 R=    0.0000 C=    0.0000
 XYZ=   -6.0494   -8.7354   -2.9218 Q=   -0.8200 A=    0.0000 R=    0.0000 C=    0.0000
 XYZ=   -6.1313   -7.8053   -2.5637 Q=    0.4100 A=    0.0000 R=    0.0000 C=    0.0000
 XYZ=   -6.9475   -9.1752   -2.9156 Q=    0.4100 A=    0.0000 R=    0.0000 C=    0.0000
 XYZ=    1.6332    4.9619  -11.1933 Q=   -0.8200 A=    0.0000 R=    0.0000 C=    0.0000
 XYZ=    2.3937    5.6113  -11.1930 Q=    0.4100 A=    0.0000 R=    0.0000 C=    0.0000
 XYZ=    0.8069    5.4162  -10.8606 Q=    0.4100 A=    0.0000 R=    0.0000 C=    0.0000
 XYZ=    4.6393    2.7158    9.8870 Q=   -0.8200 A=    0.0000 R=    0.0000 C=    0.0000
 XYZ=    5.1565    2.5886   10.7334 Q=    0.4100 A=    0.0000 R=    0.0000 C=    0.0000
 XYZ=    4.6537    3.6820    9.6295 Q=    0.4100 A=    0.0000 R=    0.0000 C=    0.0000
 XYZ=   -0.9293  -11.1203    1.5535 Q=   -0.8200 A=    0.0000 R=    0.0000 C=    0.0000
 XYZ=   -0.1508  -11.6135    1.9417 Q=    0.4100 A=    0.0000 R=    0.0000 C=    0.0000
 XYZ=   -1.6571  -11.7688    1.3306 Q=    0.4100 A=    0.0000 R=    0.0000 C=    0.0000
 XYZ=    1.3995    4.5931   10.5681 Q=   -0.8200 A=    0.0000 R=    0.0000 C=    0.0000
 XYZ=    0.5443    4.6977   11.0757 Q=    0.4100 A=    0.0000 R=    0.0000 C=    0.0000
 XYZ=    1.7688    3.6767   10.7225 Q=    0.4100 A=    0.0000 R=    0.0000 C=    0.0000
 XYZ=   -4.0212   -5.0217  -10.3148 Q=   -0.8200 A=    0.0000 R=    0.0000 C=    0.0000
 XYZ=   -4.4492   -4.9735  -11.2173 Q=    0.4100 A=    0.0000 R=    0.0000 C=    0.0000
 XYZ=   -3.1030   -4.6280  -10.3599 Q=    0.4100 A=    0.0000 R=    0.0000 C=    0.0000
 XYZ=    7.6753    6.7006    5.0649 Q=   -0.8200 A=    0.0000 R=    0.0000 C=    0.0000
 XYZ=    8.3053    6.0031    5.4063 Q=    0.4100 A=    0.0000 R=    0.0000 C=    0.0000
 XYZ=    7.1551    6.3316    4.2946 Q=    0.4100 A=    0.0000 R=    0.0000 C=    0.0000
 XYZ=    1.6915   -2.0844  -12.7099 Q=   -0.8200 A=    0.0000 R=    0.0000 C=    0.0000
 XYZ=    2.2011   -1.3360  -12.2853 Q=    0.4100 A=    0.0000 R=    0.0000 C=    0.0000
 XYZ=    1.9811   -2.1870  -13.6616 Q=    0.4100 A=    0.0000 R=    0.0000 C=    0.0000
 XYZ=   -0.0053   -1.8719   12.4198 Q=   -0.8200 A=    0.0000 R=    0.0000 C=    0.0000
 XYZ=   -0.2272   -2.2769   11.5328 Q=    0.4100 A=    0.0000 R=    0.0000 C=    0.0000
 XYZ=   -0.8112   -1.4052   12.7841 Q=    0.4100 A=    0.0000 R=    0.0000 C=    0.0000
 XYZ=  -12.1782    1.2184    3.9786 Q=   -0.8200 A=    0.0000 R=    0.0000 C=    0.0000
 XYZ=  -12.2653    2.1296    4.3812 Q=    0.4100 A=    0.0000 R=    0.0000 C=    0.0000
 XYZ=  -11.2870    1.1349    3.5326 Q=    0.4100 A=    0.0000 R=    0.0000 C=    0.0000
 XYZ=   -6.5555    1.3634  -10.5599 Q=   -0.8200 A=    0.0000 R=    0.0000 C=    0.0000
 XYZ=   -6.9475    1.0773   -9.6855 Q=    0.4100 A=    0.0000 R=    0.0000 C=    0.0000
 XYZ=   -7.2268    1.2233  -11.2878 Q=    0.4100 A=    0.0000 R=    0.0000 C=    0.0000
 XYZ=   -3.8478   -5.6289    9.4963 Q=   -0.8200 A=    0.0000 R=    0.0000 C=    0.0000
 XYZ=   -4.6291   -6.1163    9.1064 Q=    0.4100 A=    0.0000 R=    0.0000 C=    0.0000
 XYZ=   -3.7927   -5.8178   10.4768 Q=    0.4100 A=    0.0000 R=    0.0000 C=    0.0000
 XYZ=    5.0453   -1.8386   10.1869 Q=   -0.8200 A=    0.0000 R=    0.0000 C=    0.0000
 XYZ=    5.8125   -1.5620    9.6081 Q=    0.4100 A=    0.0000 R=    0.0000 C=    0.0000
 XYZ=    5.3855   -2.3848   10.9524 Q=    0.4100 A=    0.0000 R=    0.0000 C=    0.0000
 XYZ=   -3.1241  -10.5745    3.4236 Q=   -0.8200 A=    0.0000 R=    0.0000 C=    0.0000
 XYZ=   -2.2773  -10.1820    3.7827 Q=    0.4100 A=    0.0000 R=    0.0000 C=    0.0000
 XYZ=   -3.3341  -10.1602    2.5380 Q=    0.4100 A=    0.0000 R=    0.0000 C=    0.0000
 XYZ=    4.9500    5.0537    9.5065 Q=   -0.8200 A=    0.0000 R=    0.0000 C=    0.0000
 XYZ=    5.4797    5.8422    9.8193 Q=    0.4100 A=    0.0000 R=    0.0000 C=    0.0000
 XYZ=    5.3498    4.6974    8.6620 Q=    0.4100 A=    0.0000 R=    0.0000 C=    0.0000
 XYZ=    8.9447   -8.8567    3.4986 Q=   -0.8200 A=    0.0000 R=    0.0000 C=    0.0000
 XYZ=    8.0938   -8.3908    3.2557 Q=    0.4100 A=    0.0000 R=    0.0000 C=    0.0000
 XYZ=    8.8058   -9.3913    4.3322 Q=    0.4100 A=    0.0000 R=    0.0000 C=    0.0000
 XYZ=   -3.8117   10.6953   -6.3043 Q=   -0.8200 A=    0.0000 R=    0.0000 C=    0.0000
 XYZ=   -3.3887   10.0671   -5.6513 Q=    0.4100 A=    0.0000 R=    0.0000 C=    0.0000
 XYZ=   -3.1712   11.4322   -6.5208 Q=    0.4100 A=    0.0000 R=    0.0000 C=    0.0000
 XYZ=   -1.2852  -11.2240   -4.5668 Q=   -0.8200 A=    0.0000 R=    0.0000 C=    0.0000
 XYZ=   -0.7966  -10.8746   -3.7673 Q=    0.4100 A=    0.0000 R=    0.0000 C=    0.0000
 XYZ=   -1.3622  -10.5005   -5.2528 Q=    0.4100 A=    0.0000 R=    0.0000 C=    0.0000
 XYZ=    9.8236    6.8624   -1.6299 Q=   -0.8200 A=    0.0000 R=    0.0000 C=    0.0000
 XYZ=    9.7124    7.2263   -2.5547 Q=    0.4100 A=    0.0000 R=    0.0000 C=    0.0000
 XYZ=    8.9410    6.5355   -1.2921 Q=    0.4100 A=    0.0000 R=    0.0000 C=    0.0000
 XYZ=   11.3849   -5.4270    1.2024 Q=   -0.8200 A=    0.0000 R=    0.0000 C=    0.0000
 XYZ=   10.8038   -5.6421    0.4175 Q=    0.4100 A=    0.0000 R=    0.0000 C=    0.0000
 XYZ=   11.8748   -6.2500    1.4898 Q=    0.4100 A=    0.0000 R=    0.0000 C=    0.0000
 XYZ=   -2.8311   12.3287    1.5460 Q=   -0.8200 A=    0.0000 R=    0.0000 C=    0.0000
 XYZ=   -3.4408   11.5557    1.7214 Q=    0.4100 A=    0.0000 R=    0.0000 C=    0.0000
 XYZ=   -3.3680   13.1126    1.2340 Q=    0.4100 A=    0.0000 R=    0.0000 C=    0.0000
 XYZ=   -4.6390   -8.2355    7.2682 Q=   -0.8200 A=    0.0000 R=    0.0000 C=    0.0000
 XYZ=   -5.2468   -7.9733    6.5187 Q=    0.4100 A=    0.0000 R=    0.0000 C=    0.0000
 XYZ=   -5.0034   -7.8849    8.1310 Q=    0.4100 A=    0.0000 R=    0.0000 C=    0.0000
[...]
    39  O    0.004848   0.004248   0.000000   0.000000   0.000000   0.000000
    40  H    0.000021  -0.000228   0.000000   0.000000   0.000000   0.000000
    41  H    0.000941  -0.002287   0.000000   0.000000   0.000000   0.000000
    42  O    0.025614   0.001895   0.000000   0.000000   0.000000   0.000000
    43  H   -0.000367  -0.000094   0.000000   0.000000   0.000000   0.000000
    44  H   -0.000151  -0.000131   0.000000   0.000000   0.000000   0.000000
    45  O    0.000000   0.000006   0.000000   0.000000   0.000000   0.000000
    46  H    0.000000  -0.000002   0.000000   0.000000   0.000000   0.000000
    47  H    0.000000   0.000000   0.000000   0.000000   0.000000   0.000000
    48  O   -0.000096  -0.000182   0.000000   0.000000   0.000000   0.000000
    49  H    0.000000  -0.000006   0.000000   0.000000   0.000000   0.000000
    50  H   -0.000065  -0.000447   0.000000   0.000000   0.000000   0.000000
              31         32         33         34         35         36
     1  C    0.000011  -0.000269   0.006494   0.000669  -0.000470   0.004393
     2  H    0.000000   0.000000  -0.000001   0.000000   0.000000   0.000000
     3  H    0.000000   0.000000  -0.000042   0.000003   0.000002  -0.000016
     4  C    0.000085   0.000772  -0.005176  -0.000671   0.000328   0.002710
     5  H    0.000000   0.000000  -0.000020  -0.000009  -0.000004   0.000067
     6  C   -0.000021  -0.000089   0.001663   0.001206  -0.000324  -0.006893
     7  H    0.000014  -0.000127   0.000001   0.000000   0.000000  -0.000002
     8  O   -0.000002   0.000165  -0.000002   0.000000   0.000000   0.000050
     9  O   -0.000037   0.037055   0.000000   0.000000   0.000000   0.000002
    10  H    0.000058  -0.000690   0.000000   0.000000   0.000000   0.000000
    11  H   -0.000141   0.000548   0.000000   0.000000   0.000000   0.000000
    12  O    0.000000  -0.000005   0.000000   0.000000   0.000000  -0.000003
    13  H    0.000000   0.000000   0.000000   0.000000   0.000000   0.000000
    14  H    0.000000   0.000000   0.000000   0.000000   0.000000  -0.000001
    15  O   -0.000151  -0.001433   0.000000   0.000000   0.000000   0.000000
    16  H   -0.000078  -0.001678   0.000000   0.000000   0.000000   0.000000
    17  H   -0.000007   0.000002   0.000000   0.000000   0.000000   0.000000
    18  O    0.000000   0.000000   0.000460  -0.000148  -0.000004  -0.061664
    19  H    0.000000   0.000000   0.000013  -0.000005   0.000000   0.000701
    20  H    0.000000   0.000000  -0.000031   0.000011   0.000001   0.046195
    21  O    0.000000   0.000000  -0.000011  -0.000057   0.000001  -0.001499
    22  H    0.000000   0.000000   0.000000   0.000000   0.000000   0.000003
    23  H    0.000000   0.000000  -0.000003   0.000004   0.000000  -0.000378
    24  O    0.000000   0.000000   0.000000   0.000000   0.000000   0.000000
    25  H    0.000000   0.000000   0.000000   0.000000   0.000000   0.000000
    26  H    0.000000   0.000000   0.000000   0.000000   0.000000   0.000000
    27  O    0.000000   0.000000   0.000131   0.000064   0.000010  -0.114624
    28  H    0.000000   0.000000  -0.000001   0.000000   0.000000   0.001224
    29  H    0.000000   0.000000  -0.000001   0.000000   0.000000  -0.000087
    30  O    0.209291   0.161547   0.000000   0.000000   0.000000   0.000000
    31  H    0.184320  -0.006641   0.000000   0.000000   0.000000   0.000000
    32  H   -0.006641   0.209839   0.000000   0.000000   0.000000   0.000000
    33  O    0.000000   0.000000   8.694862   0.228268   0.198934   0.005106
    34  H    0.000000   0.000000   0.228268   0.260111  -0.006366   0.005015
    35  H    0.000000   0.000000   0.198934  -0.006366   0.172028   0.001352
    36  O    0.000000   0.000000   0.005106   0.005015   0.001352   8.946631
    37  H    0.000000   0.000000  -0.000138  -0.000263  -0.000068   0.213654
    38  H    0.000000   0.000000   0.000207   0.000018   0.000006   0.174258
    39  O    0.000000   0.000000   0.000000   0.000000   0.000000   0.000000
    40  H    0.000000   0.000000   0.000000   0.000000   0.000000   0.000000
    41  H    0.000000   0.000000   0.000000   0.000000   0.000000   0.000000
    42  O    0.000000   0.000000  -0.000003   0.000000   0.000000   0.000000
    43  H    0.000000   0.000000   0.000000   0.000000   0.000000   0.000000
    44  H    0.000000   0.000000  -0.000002   0.000000   0.000000   0.000000
    45  O    0.000000   0.000000   0.000000   0.000000   0.000000   0.000000
    46  H    0.000000   0.000000   0.000000   0.000000   0.000000   0.000000
    47  H    0.000000   0.000000   0.000000   0.000000   0.000000   0.000000
    48  O    0.000000   0.000000   0.000000   0.000000   0.000000   0.000000
    49  H    0.000000   0.000000   0.000000   0.000000   0.000000   0.000000
    50  H    0.000000   0.000000   0.000000   0.000000   0.000000   0.000000
              37         38         39         40         41         42
     1  C    0.000200   0.000010  -0.000071   0.000002  -0.000077   0.001766
     2  H    0.000000   0.000000   0.000002   0.000000  -0.000001  -0.000018
     3  H    0.000000   0.000000  -0.000001   0.000000   0.000000  -0.000130
     4  C   -0.000768  -0.001056  -0.000835   0.000024   0.000189   0.001564
     5  H   -0.000003  -0.000002   0.000000   0.000000   0.000000  -0.000001
     6  C    0.000329   0.000818  -0.000083  -0.000009   0.000014  -0.000301
     7  H    0.000000  -0.000002   0.000000   0.000000   0.000000   0.000000
     8  O    0.000000  -0.000003   0.000002   0.000000   0.000000   0.000000
     9  O    0.000000   0.000000   0.000000   0.000000   0.000000   0.000000
    10  H    0.000000   0.000000   0.000000   0.000000   0.000000   0.000000
    11  H    0.000000   0.000000   0.000000   0.000000   0.000000   0.000000
    12  O    0.000000   0.000000   0.000005   0.000000   0.000000   0.000000
    13  H    0.000000   0.000000   0.000000   0.000000   0.000000   0.000000
    14  H    0.000000   0.000000   0.000000   0.000000   0.000000   0.000000
    15  O    0.000000   0.000000   0.000000   0.000000   0.000000   0.000000
    16  H    0.000000   0.000000   0.000000   0.000000   0.000000   0.000000
    17  H    0.000000   0.000000   0.000000   0.000000   0.000000   0.000000
    18  O    0.002802   0.004043   0.000000   0.000000   0.000000   0.000000
    19  H   -0.000002  -0.000027   0.000000   0.000000   0.000000   0.000000
    20  H   -0.000184  -0.003973   0.000000   0.000000   0.000000   0.000000
    21  O    0.000018   0.000020  -0.000001   0.000000   0.000000  -0.000003
    22  H    0.000000   0.000000   0.000000   0.000000   0.000000   0.000000
    23  H    0.000000   0.000014   0.000000   0.000000   0.000000   0.000000
    24  O    0.000000   0.000000  -0.117130   0.003132   0.041498  -0.106113
    25  H    0.000000   0.000000   0.004848   0.000021   0.000941   0.025614
    26  H    0.000000   0.000000   0.004248  -0.000228  -0.002287   0.001895
    27  O    0.001476   0.014033   0.000000   0.000000   0.000000   0.000000
    28  H   -0.000050   0.000009   0.000000   0.000000   0.000000   0.000000
    29  H    0.000020  -0.001285   0.000000   0.000000   0.000000   0.000000
    30  O    0.000000   0.000000   0.000000   0.000000   0.000000   0.000000
    31  H    0.000000   0.000000   0.000000   0.000000   0.000000   0.000000
    32  H    0.000000   0.000000   0.000000   0.000000   0.000000   0.000000
    33  O   -0.000138   0.000207   0.000000   0.000000   0.000000  -0.000003
    34  H   -0.000263   0.000018   0.000000   0.000000   0.000000   0.000000
    35  H   -0.000068   0.000006   0.000000   0.000000   0.000000   0.000000
    36  O    0.213654   0.174258   0.000000   0.000000   0.000000   0.000000
    37  H    0.189672  -0.005621   0.000000   0.000000   0.000000   0.000000
    38  H   -0.005621   0.244326   0.000000   0.000000   0.000000   0.000000
    39  O    0.000000   0.000000   9.004430   0.214602   0.165236  -0.001008
    40  H    0.000000   0.000000   0.214602   0.172272  -0.003450   0.000027
    41  H    0.000000   0.000000   0.165236  -0.003450   0.174839   0.000989
    42  O    0.000000   0.000000  -0.001008   0.000027   0.000989   8.744109
    43  H    0.000000   0.000000   0.000017   0.000000   0.000011   0.207230
    44  H    0.000000   0.000000  -0.000057   0.000000  -0.000015   0.235474
    45  O    0.000000   0.000000   0.000009   0.000000   0.000000   0.000000
    46  H    0.000000   0.000000   0.000003   0.000000   0.000000   0.000000
    47  H    0.000000   0.000000   0.000000   0.000000   0.000000   0.000000
    48  O    0.000000   0.000000  -0.000083   0.000012  -0.000025  -0.000139
    49  H    0.000000   0.000000   0.000000   0.000000   0.000000   0.000005
    50  H    0.000000   0.000000  -0.000099   0.000000   0.000037  -0.000007
              43         44         45         46         47         48
     1  C   -0.000174   0.001172   0.008425  -0.000321   0.000532  -0.001953
     2  H    0.000000   0.000000  -0.000406   0.000047   0.000015  -0.000101
     3  H    0.000001   0.000042  -0.000001   0.000000  -0.000002  -0.000017
     4  C   -0.000003   0.000401  -0.008397   0.000219  -0.000607   0.001200
     5  H    0.000000   0.000000   0.000000   0.000000   0.000000   0.000000
     6  C    0.000004  -0.000044   0.001307   0.000175   0.001057   0.000266
     7  H    0.000000   0.000000   0.000000   0.000000  -0.000001   0.000000
     8  O    0.000000   0.000000  -0.002503  -0.000001  -0.000695  -0.000059
     9  O    0.000000   0.000000  -0.000025   0.000000  -0.000010   0.000000
    10  H    0.000000   0.000000  -0.000001   0.000000   0.000001   0.000000
    11  H    0.000000   0.000000   0.000001   0.000000   0.000000   0.000000
    12  O    0.000000   0.000000  -0.075536   0.000731   0.038448  -0.001881
    13  H    0.000000   0.000000   0.008308  -0.000675  -0.003508   0.000205
    14  H    0.000000   0.000000   0.005191  -0.000072   0.001012   0.000001
    15  O    0.000000   0.000000  -0.000003   0.000000  -0.000002   0.000000
    16  H    0.000000   0.000000   0.000000   0.000000   0.000000   0.000000
    17  H    0.000000   0.000000   0.000000   0.000000   0.000000   0.000000
    18  O    0.000000   0.000000   0.000191   0.000011   0.000052   0.000026
    19  H    0.000000   0.000000  -0.000003   0.000000   0.000000  -0.000001
    20  H    0.000000   0.000000   0.000000   0.000000   0.000000   0.000000
    21  O    0.000000   0.000001  -0.009678   0.002108   0.005031   0.000687
    22  H    0.000000   0.000000   0.000718  -0.000173  -0.000060   0.000396
    23  H    0.000000   0.000000   0.000057   0.000008  -0.000002  -0.000004
    24  O   -0.000216   0.002780  -0.000008  -0.000021  -0.000001   0.003062
    25  H   -0.000367  -0.000151   0.000000   0.000000   0.000000  -0.000096
    26  H   -0.000094  -0.000131   0.000006  -0.000002   0.000000  -0.000182
    27  O    0.000000   0.000000   0.000000   0.000000   0.000000   0.000000
    28  H    0.000000   0.000000   0.000000   0.000000   0.000000   0.000000
    29  H    0.000000   0.000000   0.000000   0.000000   0.000000   0.000000
    30  O    0.000000   0.000000   0.000000   0.000000   0.000000   0.000000
    31  H    0.000000   0.000000   0.000000   0.000000   0.000000   0.000000
    32  H    0.000000   0.000000   0.000000   0.000000   0.000000   0.000000
    33  O    0.000000  -0.000002   0.000000   0.000000   0.000000   0.000000
    34  H    0.000000   0.000000   0.000000   0.000000   0.000000   0.000000
    35  H    0.000000   0.000000   0.000000   0.000000   0.000000   0.000000
    36  O    0.000000   0.000000   0.000000   0.000000   0.000000   0.000000
    37  H    0.000000   0.000000   0.000000   0.000000   0.000000   0.000000
    38  H    0.000000   0.000000   0.000000   0.000000   0.000000   0.000000
    39  O    0.000017  -0.000057   0.000009   0.000003   0.000000  -0.000083
    40  H    0.000000   0.000000   0.000000   0.000000   0.000000   0.000012
    41  H    0.000011  -0.000015   0.000000   0.000000   0.000000  -0.000025
    42  O    0.207230   0.235474   0.000000   0.000000   0.000000  -0.000139
    43  H    0.151220  -0.006791   0.000000   0.000000   0.000000   0.000002
    44  H   -0.006791   0.250249   0.000000   0.000000   0.000000   0.000001
    45  O    0.000000   0.000000   9.038269   0.178115   0.137923  -0.046524
    46  H    0.000000   0.000000   0.178115   0.253433   0.000765  -0.013190
    47  H    0.000000   0.000000   0.137923   0.000765   0.187460   0.001986
    48  O    0.000002   0.000001  -0.046524  -0.013190   0.001986   8.867644
    49  H    0.000000   0.000000   0.000093   0.001515   0.000018   0.211864
    50  H    0.000000   0.000000   0.000273   0.000025  -0.000084   0.202673
              49         50
     1  C   -0.000010  -0.000374
     2  H    0.000000   0.000001
     3  H    0.000000   0.000000
     4  C    0.000035   0.000151
     5  H    0.000000   0.000000
     6  C    0.000004  -0.000013
     7  H    0.000000   0.000000
     8  O   -0.000001   0.000002
     9  O    0.000000   0.000000
    10  H    0.000000   0.000000
    11  H    0.000000   0.000000
    12  O    0.000024   0.000030
    13  H   -0.000008  -0.000004
    14  H    0.000000   0.000000
    15  O    0.000000   0.000000
    16  H    0.000000   0.000000
    17  H    0.000000   0.000000
    18  O    0.000000   0.000000
    19  H    0.000000   0.000000
    20  H    0.000000   0.000000
    21  O   -0.000043  -0.000007
    22  H   -0.000007  -0.000004
    23  H    0.000001   0.000000
    24  O   -0.000153   0.002256
    25  H    0.000000  -0.000065
    26  H   -0.000006  -0.000447
    27  O    0.000000   0.000000
    28  H    0.000000   0.000000
    29  H    0.000000   0.000000
    30  O    0.000000   0.000000
    31  H    0.000000   0.000000
    32  H    0.000000   0.000000
    33  O    0.000000   0.000000
    34  H    0.000000   0.000000
    35  H    0.000000   0.000000
    36  O    0.000000   0.000000
    37  H    0.000000   0.000000
    38  H    0.000000   0.000000
    39  O    0.000000  -0.000099
    40  H    0.000000   0.000000
    41  H    0.000000   0.000037
    42  O    0.000005  -0.000007
    43  H    0.000000   0.000000
    44  H    0.000000   0.000000
    45  O    0.000093   0.000273
    46  H    0.001515   0.000025
    47  H    0.000018  -0.000084
    48  O    0.211864   0.202673
    49  H    0.168601  -0.006260
    50  H   -0.006260   0.192556
 Mulliken charges:
               1
     1  C   -0.435563
     2  H    0.287045
     3  H    0.226867
     4  C   -0.066611
     5  H    0.224669
     6  C    0.020096
     7  H    0.146543
     8  O   -0.383729
     9  O   -1.251090
    10  H    0.523451
    11  H    0.657490
    12  O   -1.139212
    13  H    0.616368
    14  H    0.536394
    15  O   -1.244919
    16  H    0.634590
    17  H    0.630053
    18  O   -1.087357
    19  H    0.569371
    20  H    0.555338
    21  O   -1.278583
    22  H    0.641686
    23  H    0.611952
    24  O   -1.192519
    25  H    0.610256
    26  H    0.565240
    27  O   -1.137910
    28  H    0.649086
    29  H    0.534543
    30  O   -1.207842
    31  H    0.613298
    32  H    0.601005
    33  O   -1.130706
    34  H    0.512151
    35  H    0.634577
    36  O   -1.216196
    37  H    0.598927
    38  H    0.574207
    39  O   -1.274031
    40  H    0.613594
    41  H    0.622104
    42  O   -1.110952
    43  H    0.649160
    44  H    0.517072
    45  O   -1.235801
    46  H    0.577300
    47  H    0.630669
    48  O   -1.225769
    49  H    0.624327
    50  H    0.609358
 Sum of Mulliken charges =   0.00000
 Mulliken charges with hydrogens summed into heavy atoms:
               1
     1  C    0.078349
     4  C    0.158059
     6  C    0.166639
     8  O   -0.383729
     9  O   -0.070149
    12  O    0.013550
    15  O    0.019725
    18  O    0.037352
    21  O   -0.024946
    24  O   -0.017023
    27  O    0.045719
    30  O    0.006461
    33  O    0.016022
    36  O   -0.043062
    39  O   -0.038333
    42  O    0.055280
    45  O   -0.027832
    48  O    0.007917
 Electronic spatial extent (au):  <R**2>=          13164.0243
 Charge=              0.0000 electrons
 Dipole moment (field-independent basis, Debye):
    X=             10.0603    Y=            -19.6491    Z=             -3.6165  Tot=             22.3691
 Quadrupole moment (field-independent basis, Debye-Ang):
   XX=            -96.4982   YY=           -113.7674   ZZ=           -168.4516
   XY=             56.4597   XZ=            -15.2640   YZ=             -0.8507
 Traceless Quadrupole moment (field-independent basis, Debye-Ang):
   XX=             29.7408   YY=             12.4717   ZZ=            -42.2126
   XY=             56.4597   XZ=            -15.2640   YZ=             -0.8507
 Octapole moment (field-independent basis, Debye-Ang**2):
  XXX=            229.2715  YYY=             58.6561  ZZZ=           -135.0094  XYY=            148.1266
  XXY=           -392.9421  XXZ=            172.2790  XZZ=            105.8965  YZZ=           -163.6887
  YYZ=             -1.8700  XYZ=             46.3875
 Hexadecapole moment (field-independent basis, Debye-Ang**3):
 XXXX=          -8168.9503 YYYY=          -4920.6308 ZZZZ=          -3164.7372 XXXY=           1300.9791
 XXXZ=           -898.9672 YYYX=            982.7971 YYYZ=           -281.3290 ZZZX=            229.1306
 ZZZY=           -168.7475 XXYY=          -1400.8070 XXZZ=          -2295.8361 YYZZ=          -1183.4521
 XXYZ=            966.4010 YYXZ=           -348.1607 ZZXY=            238.8851
 N-N= 1.049382094572D+03 E-N=-6.063835409224D+03  KE= 1.249090367490D+03
 Leave Link  601 at Fri Sep 14 17:12:41 2018, MaxMem=    33554432 cpu:         2.6
 (Enter /usr/local/pacerepov1/gaussian/G09D01LINDA/g09/l9999.exe)

 Test job not archived.
 1\1\GINC-RICH133-G13-12-L\SP\RLC-wPBE TD-FC\6-31+G(d)\C3H32O15\ROOT\14
 -Sep-2018\0\\#p td=(nstates=15)/6-31+g(d) lc-wpbe charge\\Acroleina in
  Water\\0,1\C,0,0.485154,0.480443,-1.430142\H,0,1.461403,0.187773,-1.0
 55732\H,0,0.429244,0.878853,-2.437062\C,0,-0.605127,0.346563,-0.658432
 \H,0,-1.591686,0.632893,-1.012412\C,0,-0.508516,-0.199107,0.712798\H,0
 ,-1.458487,-0.272107,1.272438\O,0,0.544883,-0.561317,1.236519\O,0,-0.8
 54177,-1.516538,3.447539\H,0,-0.697567,-0.853178,2.715799\H,0,-0.28103
 7,-1.286608,4.234109\O,0,2.511633,1.162042,1.417539\H,0,2.136593,1.894
 242,0.848919\H,0,1.763653,0.667852,1.860629\O,0,0.462143,-3.423348,2.9
 96279\H,0,-0.203587,-2.677218,2.983379\H,0,0.041893,-4.238069,3.395799
 \O,0,-0.309547,4.096871,0.114599\H,0,0.269063,4.784172,-0.324531\H,0,-
 1.269607,4.360961,0.021899\O,0,1.716853,2.877822,0.164999\H,0,2.397043
 ,3.180072,-0.502821\H,0,0.845893,3.334592,-0.016301\O,0,3.642073,-1.33
 0468,-4.282171\H,0,3.068033,-0.846178,-4.942501\H,0,4.501913,-0.834428
 ,-4.161161\O,0,-2.862297,4.549341,1.649889\H,0,-3.756097,4.159311,1.87
 1409\H,0,-2.141537,3.944062,1.987829\O,0,-3.230657,-2.038208,3.851209\
 H,0,-3.075637,-2.634418,4.638959\H,0,-2.355837,-1.829328,3.414059\O,0,
 -2.408917,3.367872,-4.043551\H,0,-1.842707,3.580962,-3.247311\H,0,-3.3
 74737,3.427342,-3.791201\O,0,-2.913207,4.303671,-0.659551\H,0,-3.75267
 7,3.950892,-1.072951\H,0,-3.051467,4.425622,0.323319\O,0,4.504323,-3.4
 03358,-3.616931\H,0,5.155603,-3.152388,-2.900751\H,0,3.995513,-2.59172
 8,-3.904031\O,0,2.299953,-0.409968,-5.972901\H,0,2.537553,0.200362,-6.
 728601\H,0,1.486513,-0.062108,-5.506721\O,0,4.792113,1.151302,0.742609
 \H,0,4.908663,1.294052,-0.240291\H,0,3.816843,1.121962,0.961779\O,0,5.
 208553,1.463342,-1.736331\H,0,5.228513,2.291722,-2.296221\H,0,5.015203
 ,0.672812,-2.317501\\Version=EM64L-G09RevD.01\State=1-A\HF=-1759.03885
 11\RMSD=3.494e-09\PG=C01 [X(C3H32O15)]\\@


 TELEVISION IS CALLED A MEDIUM BECAUSE IT ISN'T
 RARE, AND IT ISN'T WELL DONE.
 Job cpu time:       0 days  2 hours 43 minutes 52.1 seconds.
 File lengths (MBytes):  RWF=    792 Int=      0 D2E=      0 Chk=     96 Scr=      2
 Normal termination of Gaussian 09 at Fri Sep 14 17:12:44 2018.
