 Entering Gaussian System, Link 0=g09
 Input=Acroleina_water_15_87c.gjf
 Output=Acroleina_water_15_87c.log
 Initial command:
 /usr/local/pacerepov1/gaussian/G09D01LINDA/g09/l1.exe /nv/hp18/holiveira7/scratch/22412029/Gau-51128.inp -scrdir=/nv/hp18/holiveira7/scratch/22412029/
 Entering Link 1 = /usr/local/pacerepov1/gaussian/G09D01LINDA/g09/l1.exe PID=     51142.
  
 Copyright (c) 1988,1990,1992,1993,1995,1998,2003,2009,2013,
            Gaussian, Inc.  All Rights Reserved.
  
 This is part of the Gaussian(R) 09 program.  It is based on
 the Gaussian(R) 03 system (copyright 2003, Gaussian, Inc.),
 the Gaussian(R) 98 system (copyright 1998, Gaussian, Inc.),
 the Gaussian(R) 94 system (copyright 1995, Gaussian, Inc.),
 the Gaussian 92(TM) system (copyright 1992, Gaussian, Inc.),
 the Gaussian 90(TM) system (copyright 1990, Gaussian, Inc.),
 the Gaussian 88(TM) system (copyright 1988, Gaussian, Inc.),
 the Gaussian 86(TM) system (copyright 1986, Carnegie Mellon
 University), and the Gaussian 82(TM) system (copyright 1983,
 Carnegie Mellon University). Gaussian is a federally registered
 trademark of Gaussian, Inc.
  
 This software contains proprietary and confidential information,
 including trade secrets, belonging to Gaussian, Inc.
  
 This software is provided under written license and may be
 used, copied, transmitted, or stored only in accord with that
 written license.
  
 The following legend is applicable only to US Government
 contracts under FAR:
  
                    RESTRICTED RIGHTS LEGEND
  
 Use, reproduction and disclosure by the US Government is
 subject to restrictions as set forth in subparagraphs (a)
 and (c) of the Commercial Computer Software - Restricted
 Rights clause in FAR 52.227-19.
  
 Gaussian, Inc.
 340 Quinnipiac St., Bldg. 40, Wallingford CT 06492
  
  
 ---------------------------------------------------------------
 Warning -- This program may not be used in any manner that
 competes with the business of Gaussian, Inc. or will provide
 assistance to any competitor of Gaussian, Inc.  The licensee
 of this program is prohibited from giving any competitor of
 Gaussian, Inc. access to this program.  By using this program,
 the user acknowledges that Gaussian, Inc. is engaged in the
 business of creating and licensing software in the field of
 computational chemistry and represents and warrants to the
 licensee that it is not a competitor of Gaussian, Inc. and that
 it will not use this program in any manner prohibited above.
 ---------------------------------------------------------------
  

 Cite this work as:
 Gaussian 09, Revision D.01,
 M. J. Frisch, G. W. Trucks, H. B. Schlegel, G. E. Scuseria, 
 M. A. Robb, J. R. Cheeseman, G. Scalmani, V. Barone, B. Mennucci, 
 G. A. Petersson, H. Nakatsuji, M. Caricato, X. Li, H. P. Hratchian, 
 A. F. Izmaylov, J. Bloino, G. Zheng, J. L. Sonnenberg, M. Hada, 
 M. Ehara, K. Toyota, R. Fukuda, J. Hasegawa, M. Ishida, T. Nakajima, 
 Y. Honda, O. Kitao, H. Nakai, T. Vreven, J. A. Montgomery, Jr., 
 J. E. Peralta, F. Ogliaro, M. Bearpark, J. J. Heyd, E. Brothers, 
 K. N. Kudin, V. N. Staroverov, T. Keith, R. Kobayashi, J. Normand, 
 K. Raghavachari, A. Rendell, J. C. Burant, S. S. Iyengar, J. Tomasi, 
 M. Cossi, N. Rega, J. M. Millam, M. Klene, J. E. Knox, J. B. Cross, 
 V. Bakken, C. Adamo, J. Jaramillo, R. Gomperts, R. E. Stratmann, 
 O. Yazyev, A. J. Austin, R. Cammi, C. Pomelli, J. W. Ochterski, 
 R. L. Martin, K. Morokuma, V. G. Zakrzewski, G. A. Voth, 
 P. Salvador, J. J. Dannenberg, S. Dapprich, A. D. Daniels, 
 O. Farkas, J. B. Foresman, J. V. Ortiz, J. Cioslowski, 
 and D. J. Fox, Gaussian, Inc., Wallingford CT, 2013.
 
 ******************************************
 Gaussian 09:  EM64L-G09RevD.01 24-Apr-2013
                14-Sep-2018 
 ******************************************
 %chk=Acrolina_Din_87.chk
 %nprocshared=10
 Will use up to   10 processors via shared memory.
 -------------------------------------------
 #p td=(nstates=15)/6-31+g(d) lc-wpbe charge
 -------------------------------------------
 1/18=10,28=-2,38=1,125=101/1;
 2/12=2,17=6,18=5,40=1/2;
 3/5=1,6=6,7=11,11=9,16=1,25=1,30=1,74=-41/1,2,8,3;
 4//1;
 5/5=2,38=5/2;
 8/6=1,10=2,108=15/1;
 9/41=15,42=1,70=2/14;
 6/7=2,8=2,9=2,10=2/1;
 99/5=1,9=1/99;
 Leave Link    1 at Fri Sep 14 17:46:36 2018, MaxMem=           0 cpu:         4.2
 (Enter /usr/local/pacerepov1/gaussian/G09D01LINDA/g09/l101.exe)
 ------------------
 Acroleina in Water
 ------------------
 Symbolic Z-matrix:
 Charge =  0 Multiplicity = 1
 C                     0.48515   0.48044  -1.43014 
 H                     1.4614    0.18777  -1.05573 
 H                     0.42924   0.87885  -2.43706 
 C                    -0.60513   0.34656  -0.65843 
 H                    -1.59169   0.63289  -1.01241 
 C                    -0.50852  -0.19911   0.7128 
 H                    -1.45849  -0.27211   1.27244 
 O                     0.54488  -0.56132   1.23652 
 O                    -0.49478   0.0597    3.22009 
 H                    -0.21123  -0.41632   2.38762 
 H                     0.25695   0.05427   3.87958 
 O                     2.07335  -3.21004   1.28751 
 H                     1.28421  -2.71534   0.92338 
 H                     1.76201  -4.041     1.74853 
 O                     1.24783   4.67072  -1.75375 
 H                     1.45316   5.35045  -2.45788 
 H                     0.26801   4.47076  -1.7592 
 O                     3.46939   4.60912  -1.26999 
 H                     3.92641   5.23342  -1.90353 
 H                     2.47965   4.66702  -1.40085 
 O                    -2.37651  -1.06559   3.78042 
 H                    -2.09917  -2.0214    3.87807 
 H                    -1.58447  -0.51376   3.51932 
 O                     4.44596   2.60592  -0.35846 
 H                     4.07407   3.29073  -0.9852 
 H                     3.80064   2.45402   0.39021 
 O                    -1.30801   4.62379  -1.92916 
 H                    -2.23323   4.379    -2.21909 
 H                    -1.3177    4.87572  -0.96146 
 O                     3.40014  -2.34828   2.87179 
 H                     4.25052  -1.9771    2.49876 
 H                     2.72067  -2.42308   2.14189 
 O                    -1.36825   5.3557    0.47087 
 H                    -2.36495   5.42305   0.51703 
 H                    -1.05997   4.58605   1.03001 
 O                    -3.56161   0.1132    2.24886 
 H                    -2.94523   0.73254   1.76252 
 H                    -3.03589  -0.44206   2.89335 
 O                     1.86493  -0.93352   4.06312 
 H                     2.37587  -0.2377    4.56792 
 H                     2.49179  -1.44873   3.47863 
 O                     0.66849  -2.56222   5.16631 
 H                     1.30201  -1.93124   4.71844 
 H                    -0.15069  -2.6681    4.60253 
 O                    -4.96836  -1.81018   0.65954 
 H                    -4.58157  -1.06249   1.19935 
 H                    -4.61677  -2.68275   0.99881 
 O                     4.099     5.72006   0.79241 
 H                     3.92264   5.08124   0.04351 
 H                     4.16815   6.64904   0.42873 
 
 NAtoms=     50 NQM=       50 NQMF=       0 NMMI=      0 NMMIF=      0
                NMic=       0 NMicF=      0.
                    Isotopes and Nuclear Properties:
 (Nuclear quadrupole moments (NQMom) in fm**2, nuclear magnetic moments (NMagM)
  in nuclear magnetons)

  Atom         1           2           3           4           5           6           7           8           9          10
 IAtWgt=          12           1           1          12           1          12           1          16          16           1
 AtmWgt=  12.0000000   1.0078250   1.0078250  12.0000000   1.0078250  12.0000000   1.0078250  15.9949146  15.9949146   1.0078250
 NucSpn=           0           1           1           0           1           0           1           0           0           1
 AtZEff=   0.0000000   0.0000000   0.0000000   0.0000000   0.0000000   0.0000000   0.0000000   0.0000000   0.0000000   0.0000000
 NQMom=    0.0000000   0.0000000   0.0000000   0.0000000   0.0000000   0.0000000   0.0000000   0.0000000   0.0000000   0.0000000
 NMagM=    0.0000000   2.7928460   2.7928460   0.0000000   2.7928460   0.0000000   2.7928460   0.0000000   0.0000000   2.7928460
 AtZNuc=   6.0000000   1.0000000   1.0000000   6.0000000   1.0000000   6.0000000   1.0000000   8.0000000   8.0000000   1.0000000

  Atom        11          12          13          14          15          16          17          18          19          20
 IAtWgt=           1          16           1           1          16           1           1          16           1           1
 AtmWgt=   1.0078250  15.9949146   1.0078250   1.0078250  15.9949146   1.0078250   1.0078250  15.9949146   1.0078250   1.0078250
 NucSpn=           1           0           1           1           0           1           1           0           1           1
 AtZEff=   0.0000000   0.0000000   0.0000000   0.0000000   0.0000000   0.0000000   0.0000000   0.0000000   0.0000000   0.0000000
 NQMom=    0.0000000   0.0000000   0.0000000   0.0000000   0.0000000   0.0000000   0.0000000   0.0000000   0.0000000   0.0000000
 NMagM=    2.7928460   0.0000000   2.7928460   2.7928460   0.0000000   2.7928460   2.7928460   0.0000000   2.7928460   2.7928460
 AtZNuc=   1.0000000   8.0000000   1.0000000   1.0000000   8.0000000   1.0000000   1.0000000   8.0000000   1.0000000   1.0000000

  Atom        21          22          23          24          25          26          27          28          29          30
 IAtWgt=          16           1           1          16           1           1          16           1           1          16
 AtmWgt=  15.9949146   1.0078250   1.0078250  15.9949146   1.0078250   1.0078250  15.9949146   1.0078250   1.0078250  15.9949146
 NucSpn=           0           1           1           0           1           1           0           1           1           0
 AtZEff=   0.0000000   0.0000000   0.0000000   0.0000000   0.0000000   0.0000000   0.0000000   0.0000000   0.0000000   0.0000000
 NQMom=    0.0000000   0.0000000   0.0000000   0.0000000   0.0000000   0.0000000   0.0000000   0.0000000   0.0000000   0.0000000
 NMagM=    0.0000000   2.7928460   2.7928460   0.0000000   2.7928460   2.7928460   0.0000000   2.7928460   2.7928460   0.0000000
 AtZNuc=   8.0000000   1.0000000   1.0000000   8.0000000   1.0000000   1.0000000   8.0000000   1.0000000   1.0000000   8.0000000

  Atom        31          32          33          34          35          36          37          38          39          40
 IAtWgt=           1           1          16           1           1          16           1           1          16           1
 AtmWgt=   1.0078250   1.0078250  15.9949146   1.0078250   1.0078250  15.9949146   1.0078250   1.0078250  15.9949146   1.0078250
 NucSpn=           1           1           0           1           1           0           1           1           0           1
 AtZEff=   0.0000000   0.0000000   0.0000000   0.0000000   0.0000000   0.0000000   0.0000000   0.0000000   0.0000000   0.0000000
 NQMom=    0.0000000   0.0000000   0.0000000   0.0000000   0.0000000   0.0000000   0.0000000   0.0000000   0.0000000   0.0000000
 NMagM=    2.7928460   2.7928460   0.0000000   2.7928460   2.7928460   0.0000000   2.7928460   2.7928460   0.0000000   2.7928460
 AtZNuc=   1.0000000   1.0000000   8.0000000   1.0000000   1.0000000   8.0000000   1.0000000   1.0000000   8.0000000   1.0000000

  Atom        41          42          43          44          45          46          47          48          49          50
 IAtWgt=           1          16           1           1          16           1           1          16           1           1
 AtmWgt=   1.0078250  15.9949146   1.0078250   1.0078250  15.9949146   1.0078250   1.0078250  15.9949146   1.0078250   1.0078250
 NucSpn=           1           0           1           1           0           1           1           0           1           1
 AtZEff=   0.0000000   0.0000000   0.0000000   0.0000000   0.0000000   0.0000000   0.0000000   0.0000000   0.0000000   0.0000000
 NQMom=    0.0000000   0.0000000   0.0000000   0.0000000   0.0000000   0.0000000   0.0000000   0.0000000   0.0000000   0.0000000
 NMagM=    2.7928460   0.0000000   2.7928460   2.7928460   0.0000000   2.7928460   2.7928460   0.0000000   2.7928460   2.7928460
 AtZNuc=   1.0000000   8.0000000   1.0000000   1.0000000   8.0000000   1.0000000   1.0000000   8.0000000   1.0000000   1.0000000
 Background charge distribution read from input stream:
 Point Charges:
 XYZ=   -1.6252   -3.2274    4.2145 Q=   -0.8200 A=    0.0000 R=    0.0000 C=    0.0000
 XYZ=   -1.9672   -3.3250    5.1492 Q=    0.4100 A=    0.0000 R=    0.0000 C=    0.0000
 XYZ=   -1.4811   -4.1333    3.8161 Q=    0.4100 A=    0.0000 R=    0.0000 C=    0.0000
 XYZ=   -5.5268   -1.9982   -1.6017 Q=   -0.8200 A=    0.0000 R=    0.0000 C=    0.0000
 XYZ=   -5.1632   -1.8509   -0.6818 Q=    0.4100 A=    0.0000 R=    0.0000 C=    0.0000
 XYZ=   -5.8370   -2.9448   -1.6898 Q=    0.4100 A=    0.0000 R=    0.0000 C=    0.0000
 XYZ=   -3.4881    4.1443   -2.4608 Q=   -0.8200 A=    0.0000 R=    0.0000 C=    0.0000
 XYZ=   -4.1224    4.6784   -1.9018 Q=    0.4100 A=    0.0000 R=    0.0000 C=    0.0000
 XYZ=   -3.7830    3.1889   -2.4788 Q=    0.4100 A=    0.0000 R=    0.0000 C=    0.0000
 XYZ=    1.1151   -5.2033    2.2190 Q=   -0.8200 A=    0.0000 R=    0.0000 C=    0.0000
 XYZ=    0.6740   -5.8124    1.5599 Q=    0.4100 A=    0.0000 R=    0.0000 C=    0.0000
 XYZ=    1.6892   -5.7405    2.8369 Q=    0.4100 A=    0.0000 R=    0.0000 C=    0.0000
 XYZ=   -0.9556    6.6773   -3.3175 Q=   -0.8200 A=    0.0000 R=    0.0000 C=    0.0000
 XYZ=   -1.1049    5.7985   -2.8643 Q=    0.4100 A=    0.0000 R=    0.0000 C=    0.0000
 XYZ=   -0.8490    7.3939   -2.6281 Q=    0.4100 A=    0.0000 R=    0.0000 C=    0.0000
 XYZ=   -1.9628   -6.3927   -0.0170 Q=   -0.8200 A=    0.0000 R=    0.0000 C=    0.0000
 XYZ=   -2.0174   -7.3720   -0.2122 Q=    0.4100 A=    0.0000 R=    0.0000 C=    0.0000
 XYZ=   -2.1600   -5.8753   -0.8497 Q=    0.4100 A=    0.0000 R=    0.0000 C=    0.0000
 XYZ=    3.8972   -4.8293    0.5089 Q=   -0.8200 A=    0.0000 R=    0.0000 C=    0.0000
 XYZ=    3.2808   -4.0565    0.6606 Q=    0.4100 A=    0.0000 R=    0.0000 C=    0.0000
 XYZ=    3.9521   -5.3803    1.3416 Q=    0.4100 A=    0.0000 R=    0.0000 C=    0.0000
 XYZ=   -1.0555   -5.3189    3.4049 Q=   -0.8200 A=    0.0000 R=    0.0000 C=    0.0000
 XYZ=   -0.1443   -5.3119    2.9929 Q=    0.4100 A=    0.0000 R=    0.0000 C=    0.0000
 XYZ=   -1.0937   -6.0197    4.1173 Q=    0.4100 A=    0.0000 R=    0.0000 C=    0.0000
 XYZ=   -0.2098    7.4695    0.2941 Q=   -0.8200 A=    0.0000 R=    0.0000 C=    0.0000
 XYZ=   -0.5497    8.3003    0.7348 Q=    0.4100 A=    0.0000 R=    0.0000 C=    0.0000
 XYZ=   -0.8357    6.7126    0.4821 Q=    0.4100 A=    0.0000 R=    0.0000 C=    0.0000
 XYZ=   -4.6282   -3.9621    1.3964 Q=   -0.8200 A=    0.0000 R=    0.0000 C=    0.0000
 XYZ=   -5.0458   -3.7198    2.2722 Q=    0.4100 A=    0.0000 R=    0.0000 C=    0.0000
 XYZ=   -3.8909   -4.6201    1.5494 Q=    0.4100 A=    0.0000 R=    0.0000 C=    0.0000
 XYZ=   -4.1264   -1.9587    5.0940 Q=   -0.8200 A=    0.0000 R=    0.0000 C=    0.0000
 XYZ=   -3.4689   -1.4978    4.4979 Q=    0.4100 A=    0.0000 R=    0.0000 C=    0.0000
 XYZ=   -3.6359   -2.4572    5.8087 Q=    0.4100 A=    0.0000 R=    0.0000 C=    0.0000
 XYZ=    6.6144    1.8633   -1.0297 Q=   -0.8200 A=    0.0000 R=    0.0000 C=    0.0000
 XYZ=    6.7281    1.9791   -2.0165 Q=    0.4100 A=    0.0000 R=    0.0000 C=    0.0000
 XYZ=    5.7505    2.2773   -0.7429 Q=    0.4100 A=    0.0000 R=    0.0000 C=    0.0000
 XYZ=    1.3194    6.2683   -3.6552 Q=   -0.8200 A=    0.0000 R=    0.0000 C=    0.0000
 XYZ=    0.3527    6.5244   -3.6566 Q=    0.4100 A=    0.0000 R=    0.0000 C=    0.0000
 XYZ=    1.5364    5.7814   -4.5013 Q=    0.4100 A=    0.0000 R=    0.0000 C=    0.0000
 XYZ=   -5.7416   -4.5992   -0.8334 Q=   -0.8200 A=    0.0000 R=    0.0000 C=    0.0000
 XYZ=   -5.3561   -5.3677   -1.3441 Q=    0.4100 A=    0.0000 R=    0.0000 C=    0.0000
 XYZ=   -5.1308   -4.3608   -0.0784 Q=    0.4100 A=    0.0000 R=    0.0000 C=    0.0000
 XYZ=   -3.3825    1.5532   -6.3363 Q=   -0.8200 A=    0.0000 R=    0.0000 C=    0.0000
 XYZ=   -2.8643    0.6986   -6.3031 Q=    0.4100 A=    0.0000 R=    0.0000 C=    0.0000
 XYZ=   -2.7578    2.3263   -6.2257 Q=    0.4100 A=    0.0000 R=    0.0000 C=    0.0000
 XYZ=   -3.1138   -5.6633    1.8551 Q=   -0.8200 A=    0.0000 R=    0.0000 C=    0.0000
 XYZ=   -2.4469   -5.3988    2.5518 Q=    0.4100 A=    0.0000 R=    0.0000 C=    0.0000
 XYZ=   -2.6345   -6.0229    1.0545 Q=    0.4100 A=    0.0000 R=    0.0000 C=    0.0000
 XYZ=    0.2666   -6.7362    0.7748 Q=   -0.8200 A=    0.0000 R=    0.0000 C=    0.0000
 XYZ=    0.6794   -7.1273   -0.0478 Q=    0.4100 A=    0.0000 R=    0.0000 C=    0.0000
 XYZ=   -0.6762   -6.4664    0.5786 Q=    0.4100 A=    0.0000 R=    0.0000 C=    0.0000
 XYZ=    1.7632    5.0328   -5.6285 Q=   -0.8200 A=    0.0000 R=    0.0000 C=    0.0000
 XYZ=    1.4301    4.0960   -5.5214 Q=    0.4100 A=    0.0000 R=    0.0000 C=    0.0000
 XYZ=    2.7105    5.0152   -5.9485 Q=    0.4100 A=    0.0000 R=    0.0000 C=    0.0000
 XYZ=    3.0323    0.8456    5.6411 Q=   -0.8200 A=    0.0000 R=    0.0000 C=    0.0000
 XYZ=    3.4748    0.0029    5.9476 Q=    0.4100 A=    0.0000 R=    0.0000 C=    0.0000
 XYZ=    3.7174    1.4566    5.2444 Q=    0.4100 A=    0.0000 R=    0.0000 C=    0.0000
 XYZ=    3.4306    5.8081    3.1855 Q=   -0.8200 A=    0.0000 R=    0.0000 C=    0.0000
 XYZ=    2.8359    6.6084    3.2611 Q=    0.4100 A=    0.0000 R=    0.0000 C=    0.0000
 XYZ=    3.6949    5.6784    2.2298 Q=    0.4100 A=    0.0000 R=    0.0000 C=    0.0000
 XYZ=   -1.9609    3.4207   -5.9505 Q=   -0.8200 A=    0.0000 R=    0.0000 C=    0.0000
 XYZ=   -2.7629    3.9272   -5.6335 Q=    0.4100 A=    0.0000 R=    0.0000 C=    0.0000
 XYZ=   -1.2640    4.0643   -6.2672 Q=    0.4100 A=    0.0000 R=    0.0000 C=    0.0000
 XYZ=   -5.6288    0.9322    3.2926 Q=   -0.8200 A=    0.0000 R=    0.0000 C=    0.0000
 XYZ=   -4.7235    0.6130    3.0123 Q=    0.4100 A=    0.0000 R=    0.0000 C=    0.0000
 XYZ=   -5.9500    0.3859    4.0662 Q=    0.4100 A=    0.0000 R=    0.0000 C=    0.0000
 XYZ=    2.0978    7.9555    1.0343 Q=   -0.8200 A=    0.0000 R=    0.0000 C=    0.0000
 XYZ=    1.7922    8.6157    1.7205 Q=    0.4100 A=    0.0000 R=    0.0000 C=    0.0000
 XYZ=    1.3020    7.5407    0.5932 Q=    0.4100 A=    0.0000 R=    0.0000 C=    0.0000
 XYZ=    4.2119   -3.3151    4.9018 Q=   -0.8200 A=    0.0000 R=    0.0000 C=    0.0000
 XYZ=    3.7756   -3.1331    4.0206 Q=    0.4100 A=    0.0000 R=    0.0000 C=    0.0000
 XYZ=    4.1696   -2.4936    5.4706 Q=    0.4100 A=    0.0000 R=    0.0000 C=    0.0000
 XYZ=   -3.6243    4.8818    0.7788 Q=   -0.8200 A=    0.0000 R=    0.0000 C=    0.0000
 XYZ=   -4.2468    5.3201    0.1305 Q=    0.4100 A=    0.0000 R=    0.0000 C=    0.0000
 XYZ=   -4.1240    4.6431    1.6114 Q=    0.4100 A=    0.0000 R=    0.0000 C=    0.0000
 XYZ=    4.7508    2.1282    4.7245 Q=   -0.8200 A=    0.0000 R=    0.0000 C=    0.0000
 XYZ=    5.4744    2.1247    5.4147 Q=    0.4100 A=    0.0000 R=    0.0000 C=    0.0000
 XYZ=    4.8852    2.9013    4.1046 Q=    0.4100 A=    0.0000 R=    0.0000 C=    0.0000
 XYZ=   -0.7184   -2.2138    7.0354 Q=   -0.8200 A=    0.0000 R=    0.0000 C=    0.0000
 XYZ=   -0.0807   -2.3000    6.2699 Q=    0.4100 A=    0.0000 R=    0.0000 C=    0.0000
 XYZ=   -0.3223   -2.6400    7.8487 Q=    0.4100 A=    0.0000 R=    0.0000 C=    0.0000
 XYZ=   -6.7279   -0.1728   -2.4492 Q=   -0.8200 A=    0.0000 R=    0.0000 C=    0.0000
 XYZ=   -6.9056   -0.3955   -3.4078 Q=    0.4100 A=    0.0000 R=    0.0000 C=    0.0000
 XYZ=   -6.2359   -0.9286   -2.0171 Q=    0.4100 A=    0.0000 R=    0.0000 C=    0.0000
 XYZ=    5.3933   -1.5754    2.1185 Q=   -0.8200 A=    0.0000 R=    0.0000 C=    0.0000
 XYZ=    5.6708   -0.7325    2.5794 Q=    0.4100 A=    0.0000 R=    0.0000 C=    0.0000
 XYZ=    6.1156   -1.8650    1.4903 Q=    0.4100 A=    0.0000 R=    0.0000 C=    0.0000
 XYZ=    6.0474    4.7311    1.8900 Q=   -0.8200 A=    0.0000 R=    0.0000 C=    0.0000
 XYZ=    5.8046    4.4845    2.8282 Q=    0.4100 A=    0.0000 R=    0.0000 C=    0.0000
 XYZ=    5.2250    5.0135    1.3962 Q=    0.4100 A=    0.0000 R=    0.0000 C=    0.0000
 XYZ=    3.1000    7.6507   -2.7117 Q=   -0.8200 A=    0.0000 R=    0.0000 C=    0.0000
 XYZ=    3.9242    7.1001   -2.8440 Q=    0.4100 A=    0.0000 R=    0.0000 C=    0.0000
 XYZ=    2.3130    7.1713   -3.1001 Q=    0.4100 A=    0.0000 R=    0.0000 C=    0.0000
 XYZ=    2.3470   -4.3666    5.7296 Q=   -0.8200 A=    0.0000 R=    0.0000 C=    0.0000
 XYZ=    3.1169   -3.8497    5.3554 Q=    0.4100 A=    0.0000 R=    0.0000 C=    0.0000
 XYZ=    1.4983   -3.8619    5.5714 Q=    0.4100 A=    0.0000 R=    0.0000 C=    0.0000
 XYZ=   -7.1725   -0.9226    1.3861 Q=   -0.8200 A=    0.0000 R=    0.0000 C=    0.0000
 XYZ=   -6.2971   -1.3432    1.1480 Q=    0.4100 A=    0.0000 R=    0.0000 C=    0.0000
 XYZ=   -7.0824    0.0729    1.3584 Q=    0.4100 A=    0.0000 R=    0.0000 C=    0.0000
 XYZ=    6.1503    0.3537    3.6519 Q=   -0.8200 A=    0.0000 R=    0.0000 C=    0.0000
 XYZ=    6.2195   -0.2583    4.4397 Q=    0.4100 A=    0.0000 R=    0.0000 C=    0.0000
 XYZ=    5.6726    1.1902    3.9207 Q=    0.4100 A=    0.0000 R=    0.0000 C=    0.0000
 XYZ=   -3.7692    4.7556   -4.8403 Q=   -0.8200 A=    0.0000 R=    0.0000 C=    0.0000
 XYZ=   -3.9592    4.6409   -3.8652 Q=    0.4100 A=    0.0000 R=    0.0000 C=    0.0000
 XYZ=   -4.3784    4.1656   -5.3702 Q=    0.4100 A=    0.0000 R=    0.0000 C=    0.0000
 XYZ=    2.0323    2.3674    7.0583 Q=   -0.8200 A=    0.0000 R=    0.0000 C=    0.0000
 XYZ=    2.3345    1.6551    6.4248 Q=    0.4100 A=    0.0000 R=    0.0000 C=    0.0000
 XYZ=    1.2130    2.0581    7.5412 Q=    0.4100 A=    0.0000 R=    0.0000 C=    0.0000
 XYZ=    4.8952    5.9897   -2.7117 Q=   -0.8200 A=    0.0000 R=    0.0000 C=    0.0000
 XYZ=    5.3845    6.6638   -2.1584 Q=    0.4100 A=    0.0000 R=    0.0000 C=    0.0000
 XYZ=    5.5356    5.2893   -3.0269 Q=    0.4100 A=    0.0000 R=    0.0000 C=    0.0000
 XYZ=   -6.0144    2.0882   -2.1344 Q=   -0.8200 A=    0.0000 R=    0.0000 C=    0.0000
 XYZ=   -6.2318    1.1153   -2.2130 Q=    0.4100 A=    0.0000 R=    0.0000 C=    0.0000
 XYZ=   -6.4912    2.5953   -2.8524 Q=    0.4100 A=    0.0000 R=    0.0000 C=    0.0000
 XYZ=    5.1646    4.3675    3.9641 Q=   -0.8200 A=    0.0000 R=    0.0000 C=    0.0000
 XYZ=    5.6367    4.7031    4.7793 Q=    0.4100 A=    0.0000 R=    0.0000 C=    0.0000
 XYZ=    4.4124    4.9859    3.7363 Q=    0.4100 A=    0.0000 R=    0.0000 C=    0.0000
 XYZ=   -5.8292    2.9880    0.0628 Q=   -0.8200 A=    0.0000 R=    0.0000 C=    0.0000
 XYZ=   -5.1114    3.6657   -0.0971 Q=    0.4100 A=    0.0000 R=    0.0000 C=    0.0000
 XYZ=   -5.9305    2.4121   -0.7485 Q=    0.4100 A=    0.0000 R=    0.0000 C=    0.0000
 XYZ=   -0.4925    8.5034   -1.7670 Q=   -0.8200 A=    0.0000 R=    0.0000 C=    0.0000
 XYZ=    0.4335    8.8469   -1.9241 Q=    0.4100 A=    0.0000 R=    0.0000 C=    0.0000
 XYZ=   -0.5450    8.0908   -0.8575 Q=    0.4100 A=    0.0000 R=    0.0000 C=    0.0000
 XYZ=   -5.4753   -3.3472    3.6140 Q=   -0.8200 A=    0.0000 R=    0.0000 C=    0.0000
 XYZ=   -6.3710   -2.9029    3.6318 Q=    0.4100 A=    0.0000 R=    0.0000 C=    0.0000
 XYZ=   -4.8367   -2.8327    4.1863 Q=    0.4100 A=    0.0000 R=    0.0000 C=    0.0000
 XYZ=   -2.0389    6.5225   -5.3270 Q=   -0.8200 A=    0.0000 R=    0.0000 C=    0.0000
 XYZ=   -1.6233    6.5599   -4.4182 Q=    0.4100 A=    0.0000 R=    0.0000 C=    0.0000
 XYZ=   -2.8572    5.9485   -5.2959 Q=    0.4100 A=    0.0000 R=    0.0000 C=    0.0000
 XYZ=    3.4199   -6.4527   -1.3470 Q=   -0.8200 A=    0.0000 R=    0.0000 C=    0.0000
 XYZ=    3.4953   -5.8034   -0.5902 Q=    0.4100 A=    0.0000 R=    0.0000 C=    0.0000
 XYZ=    4.1264   -6.2558   -2.0268 Q=    0.4100 A=    0.0000 R=    0.0000 C=    0.0000
 XYZ=    2.4970    6.1665    5.3953 Q=   -0.8200 A=    0.0000 R=    0.0000 C=    0.0000
 XYZ=    2.9981    5.6948    4.6698 Q=    0.4100 A=    0.0000 R=    0.0000 C=    0.0000
 XYZ=    2.2639    5.5150    6.1173 Q=    0.4100 A=    0.0000 R=    0.0000 C=    0.0000
 XYZ=    3.9264    7.8343   -0.4053 Q=   -0.8200 A=    0.0000 R=    0.0000 C=    0.0000
 XYZ=    3.1891    8.0529    0.2339 Q=    0.4100 A=    0.0000 R=    0.0000 C=    0.0000
 XYZ=    3.5888    7.9137   -1.3433 Q=    0.4100 A=    0.0000 R=    0.0000 C=    0.0000
 XYZ=   -2.7073   -3.0372    6.4814 Q=   -0.8200 A=    0.0000 R=    0.0000 C=    0.0000
 XYZ=   -1.8425   -2.6082    6.7424 Q=    0.4100 A=    0.0000 R=    0.0000 C=    0.0000
 XYZ=   -2.7750   -3.9383    6.9098 Q=    0.4100 A=    0.0000 R=    0.0000 C=    0.0000
 XYZ=   -5.2412    2.9661   -6.0928 Q=   -0.8200 A=    0.0000 R=    0.0000 C=    0.0000
 XYZ=   -5.2540    3.3348   -7.0223 Q=    0.4100 A=    0.0000 R=    0.0000 C=    0.0000
 XYZ=   -4.7185    2.1137   -6.0796 Q=    0.4100 A=    0.0000 R=    0.0000 C=    0.0000
 XYZ=    5.7514   -4.6991   -0.7927 Q=   -0.8200 A=    0.0000 R=    0.0000 C=    0.0000
 XYZ=    4.9505   -4.6077   -0.2008 Q=    0.4100 A=    0.0000 R=    0.0000 C=    0.0000
 XYZ=    5.5888   -5.4222   -1.4640 Q=    0.4100 A=    0.0000 R=    0.0000 C=    0.0000
 XYZ=    3.6709    0.3265   -7.4256 Q=   -0.8200 A=    0.0000 R=    0.0000 C=    0.0000
 XYZ=    3.8873    0.8918   -8.2216 Q=    0.4100 A=    0.0000 R=    0.0000 C=    0.0000
 XYZ=    2.6872    0.1487   -7.4006 Q=    0.4100 A=    0.0000 R=    0.0000 C=    0.0000
 XYZ=    6.9238    2.0383   -3.2807 Q=   -0.8200 A=    0.0000 R=    0.0000 C=    0.0000
 XYZ=    6.5473    2.9037   -3.6114 Q=    0.4100 A=    0.0000 R=    0.0000 C=    0.0000
 XYZ=    6.7330    1.3160   -3.9455 Q=    0.4100 A=    0.0000 R=    0.0000 C=    0.0000
 XYZ=   -5.0386   -6.2775   -2.1955 Q=   -0.8200 A=    0.0000 R=    0.0000 C=    0.0000
 XYZ=   -5.2171   -6.0466   -3.1520 Q=    0.4100 A=    0.0000 R=    0.0000 C=    0.0000
 XYZ=   -4.7331   -7.2277   -2.1334 Q=    0.4100 A=    0.0000 R=    0.0000 C=    0.0000
 XYZ=    7.5866    3.0118    0.9353 Q=   -0.8200 A=    0.0000 R=    0.0000 C=    0.0000
 XYZ=    6.8932    3.6745    1.2183 Q=    0.4100 A=    0.0000 R=    0.0000 C=    0.0000
 XYZ=    7.3306    2.6181    0.0524 Q=    0.4100 A=    0.0000 R=    0.0000 C=    0.0000
 XYZ=    2.4012   -6.2749    3.8066 Q=   -0.8200 A=    0.0000 R=    0.0000 C=    0.0000
 XYZ=    1.7920   -7.0557    3.9452 Q=    0.4100 A=    0.0000 R=    0.0000 C=    0.0000
 XYZ=    2.5726   -5.8260    4.6837 Q=    0.4100 A=    0.0000 R=    0.0000 C=    0.0000
 XYZ=    6.3482   -3.1318    3.6048 Q=   -0.8200 A=    0.0000 R=    0.0000 C=    0.0000
 XYZ=    5.8755   -2.5879    2.9115 Q=    0.4100 A=    0.0000 R=    0.0000 C=    0.0000
 XYZ=    5.6750   -3.6033    4.1746 Q=    0.4100 A=    0.0000 R=    0.0000 C=    0.0000
 XYZ=   -1.5162   -0.0544    7.6534 Q=   -0.8200 A=    0.0000 R=    0.0000 C=    0.0000
 XYZ=   -1.2247   -0.9701    7.3766 Q=    0.4100 A=    0.0000 R=    0.0000 C=    0.0000
 XYZ=   -2.4925    0.0553    7.4670 Q=    0.4100 A=    0.0000 R=    0.0000 C=    0.0000
 XYZ=   -0.5171    5.1102   -6.7657 Q=   -0.8200 A=    0.0000 R=    0.0000 C=    0.0000
 XYZ=    0.3832    5.3959   -6.4372 Q=    0.4100 A=    0.0000 R=    0.0000 C=    0.0000
 XYZ=   -1.2248    5.6510   -6.3110 Q=    0.4100 A=    0.0000 R=    0.0000 C=    0.0000
 XYZ=    7.9395    0.1340   -0.3529 Q=   -0.8200 A=    0.0000 R=    0.0000 C=    0.0000
 XYZ=    7.3101    0.8689   -0.6053 Q=    0.4100 A=    0.0000 R=    0.0000 C=    0.0000
 XYZ=    7.4656   -0.5245    0.2319 Q=    0.4100 A=    0.0000 R=    0.0000 C=    0.0000
 XYZ=   -4.9861    5.3134   -1.2004 Q=   -0.8200 A=    0.0000 R=    0.0000 C=    0.0000
 XYZ=   -4.6915    6.2684   -1.2360 Q=    0.4100 A=    0.0000 R=    0.0000 C=    0.0000
 XYZ=   -5.7759    5.1857   -1.8003 Q=    0.4100 A=    0.0000 R=    0.0000 C=    0.0000
 XYZ=    4.2372   -6.5169    2.2752 Q=   -0.8200 A=    0.0000 R=    0.0000 C=    0.0000
 XYZ=    3.5225   -6.2216    2.9092 Q=    0.4100 A=    0.0000 R=    0.0000 C=    0.0000
 XYZ=    4.0418   -7.4464    1.9622 Q=    0.4100 A=    0.0000 R=    0.0000 C=    0.0000
 XYZ=    1.8766    4.6921    7.1227 Q=   -0.8200 A=    0.0000 R=    0.0000 C=    0.0000
 XYZ=    1.8513    4.8505    8.1098 Q=    0.4100 A=    0.0000 R=    0.0000 C=    0.0000
 XYZ=    2.0234    3.7189    6.9451 Q=    0.4100 A=    0.0000 R=    0.0000 C=    0.0000
 XYZ=    6.5135    4.3586   -3.6011 Q=   -0.8200 A=    0.0000 R=    0.0000 C=    0.0000
 XYZ=    7.4811    4.5396   -3.4247 Q=    0.4100 A=    0.0000 R=    0.0000 C=    0.0000
 XYZ=    6.2896    4.6273   -4.5379 Q=    0.4100 A=    0.0000 R=    0.0000 C=    0.0000
 XYZ=    4.2309   -1.0388    6.1725 Q=   -0.8200 A=    0.0000 R=    0.0000 C=    0.0000
 XYZ=    4.3816   -0.6595    7.0855 Q=    0.4100 A=    0.0000 R=    0.0000 C=    0.0000
 XYZ=    5.1032   -1.0955    5.6870 Q=    0.4100 A=    0.0000 R=    0.0000 C=    0.0000
 XYZ=    1.4433   -7.7288   -1.0713 Q=   -0.8200 A=    0.0000 R=    0.0000 C=    0.0000
 XYZ=    2.3180   -7.3215   -1.3342 Q=    0.4100 A=    0.0000 R=    0.0000 C=    0.0000
 XYZ=    1.1823   -8.4209   -1.7443 Q=    0.4100 A=    0.0000 R=    0.0000 C=    0.0000
 XYZ=    1.8698    9.4683   -2.4140 Q=   -0.8200 A=    0.0000 R=    0.0000 C=    0.0000
 XYZ=    1.4084    9.7034   -3.2695 Q=    0.4100 A=    0.0000 R=    0.0000 C=    0.0000
 XYZ=    2.4146    8.6402   -2.5458 Q=    0.4100 A=    0.0000 R=    0.0000 C=    0.0000
 XYZ=   -6.8832    1.6555    1.4777 Q=   -0.8200 A=    0.0000 R=    0.0000 C=    0.0000
 XYZ=   -6.3905    2.3190    0.9147 Q=    0.4100 A=    0.0000 R=    0.0000 C=    0.0000
 XYZ=   -6.3312    1.4227    2.2784 Q=    0.4100 A=    0.0000 R=    0.0000 C=    0.0000
 XYZ=    8.0908    1.6589    2.8652 Q=   -0.8200 A=    0.0000 R=    0.0000 C=    0.0000
 XYZ=    7.8406    2.1927    2.0575 Q=    0.4100 A=    0.0000 R=    0.0000 C=    0.0000
 XYZ=    7.2954    1.1429    3.1832 Q=    0.4100 A=    0.0000 R=    0.0000 C=    0.0000
 XYZ=   -6.2176   -0.5216    4.9585 Q=   -0.8200 A=    0.0000 R=    0.0000 C=    0.0000
 XYZ=   -6.7280   -1.0750    4.3003 Q=    0.4100 A=    0.0000 R=    0.0000 C=    0.0000
 XYZ=   -5.4014   -1.0199    5.2510 Q=    0.4100 A=    0.0000 R=    0.0000 C=    0.0000
 XYZ=   -6.7297    3.1895   -4.2727 Q=   -0.8200 A=    0.0000 R=    0.0000 C=    0.0000
 XYZ=   -5.9618    3.0826   -4.9043 Q=    0.4100 A=    0.0000 R=    0.0000 C=    0.0000
 XYZ=   -7.5569    2.8091   -4.6862 Q=    0.4100 A=    0.0000 R=    0.0000 C=    0.0000
 XYZ=   -4.3967   -7.1377    3.3467 Q=   -0.8200 A=    0.0000 R=    0.0000 C=    0.0000
 XYZ=   -3.9051   -6.6069    2.6564 Q=    0.4100 A=    0.0000 R=    0.0000 C=    0.0000
 XYZ=   -5.0446   -6.5442    3.8243 Q=    0.4100 A=    0.0000 R=    0.0000 C=    0.0000
 XYZ=   -4.2775    1.4972   -8.6272 Q=   -0.8200 A=    0.0000 R=    0.0000 C=    0.0000
 XYZ=   -4.4031    0.5799   -9.0050 Q=    0.4100 A=    0.0000 R=    0.0000 C=    0.0000
 XYZ=   -3.9608    1.4275   -7.6812 Q=    0.4100 A=    0.0000 R=    0.0000 C=    0.0000
 XYZ=    0.7973   -8.8240    1.7802 Q=   -0.8200 A=    0.0000 R=    0.0000 C=    0.0000
 XYZ=    0.6699   -7.8953    1.4318 Q=    0.4100 A=    0.0000 R=    0.0000 C=    0.0000
 XYZ=    1.4708   -9.3019    1.2164 Q=    0.4100 A=    0.0000 R=    0.0000 C=    0.0000
 XYZ=    5.2351   -0.7463   -5.9962 Q=   -0.8200 A=    0.0000 R=    0.0000 C=    0.0000
 XYZ=    4.6183   -0.2135   -6.5756 Q=    0.4100 A=    0.0000 R=    0.0000 C=    0.0000
 XYZ=    5.7723   -0.1271   -5.4234 Q=    0.4100 A=    0.0000 R=    0.0000 C=    0.0000
 XYZ=   -3.6463    6.2682    4.2168 Q=   -0.8200 A=    0.0000 R=    0.0000 C=    0.0000
 XYZ=   -4.4958    6.4661    4.7059 Q=    0.4100 A=    0.0000 R=    0.0000 C=    0.0000
 XYZ=   -3.8364    5.6469    3.4566 Q=    0.4100 A=    0.0000 R=    0.0000 C=    0.0000
 XYZ=   -4.8739    4.8347    2.7828 Q=   -0.8200 A=    0.0000 R=    0.0000 C=    0.0000
 XYZ=   -5.5711    5.4909    2.4939 Q=    0.4100 A=    0.0000 R=    0.0000 C=    0.0000
 XYZ=   -5.2985    4.1211    3.3400 Q=    0.4100 A=    0.0000 R=    0.0000 C=    0.0000
 XYZ=   -7.3504   -6.2475    0.2025 Q=   -0.8200 A=    0.0000 R=    0.0000 C=    0.0000
 XYZ=   -8.1379   -6.4505   -0.3794 Q=    0.4100 A=    0.0000 R=    0.0000 C=    0.0000
 XYZ=   -6.7512   -5.5960   -0.2629 Q=    0.4100 A=    0.0000 R=    0.0000 C=    0.0000
 XYZ=    6.0857    7.6026   -1.3976 Q=   -0.8200 A=    0.0000 R=    0.0000 C=    0.0000
 XYZ=    5.3202    7.9041   -0.8290 Q=    0.4100 A=    0.0000 R=    0.0000 C=    0.0000
 XYZ=    6.9261    7.6088   -0.8556 Q=    0.4100 A=    0.0000 R=    0.0000 C=    0.0000
 XYZ=    7.1918   -2.0811    0.7413 Q=   -0.8200 A=    0.0000 R=    0.0000 C=    0.0000
 XYZ=    7.1619   -2.3499   -0.2215 Q=    0.4100 A=    0.0000 R=    0.0000 C=    0.0000
 XYZ=    7.5086   -2.8527    1.2930 Q=    0.4100 A=    0.0000 R=    0.0000 C=    0.0000
 XYZ=   -0.4196    4.2579    7.7197 Q=   -0.8200 A=    0.0000 R=    0.0000 C=    0.0000
 XYZ=    0.3719    4.5411    7.1780 Q=    0.4100 A=    0.0000 R=    0.0000 C=    0.0000
 XYZ=   -0.4693    3.2594    7.7403 Q=    0.4100 A=    0.0000 R=    0.0000 C=    0.0000
 XYZ=   -5.8294    3.2158    4.3533 Q=   -0.8200 A=    0.0000 R=    0.0000 C=    0.0000
 XYZ=   -5.4542    3.1630    5.2787 Q=    0.4100 A=    0.0000 R=    0.0000 C=    0.0000
 XYZ=   -5.7599    2.3202    3.9139 Q=    0.4100 A=    0.0000 R=    0.0000 C=    0.0000
 XYZ=   -2.3982   -8.5801   -0.5191 Q=   -0.8200 A=    0.0000 R=    0.0000 C=    0.0000
 XYZ=   -3.3651   -8.6013   -0.7733 Q=    0.4100 A=    0.0000 R=    0.0000 C=    0.0000
 XYZ=   -2.0945   -9.5039   -0.2858 Q=    0.4100 A=    0.0000 R=    0.0000 C=    0.0000
 XYZ=   -8.9429    0.1515   -1.6526 Q=   -0.8200 A=    0.0000 R=    0.0000 C=    0.0000
 XYZ=   -9.2535    1.0381   -1.9955 Q=    0.4100 A=    0.0000 R=    0.0000 C=    0.0000
 XYZ=   -7.9994   -0.0066   -1.9440 Q=    0.4100 A=    0.0000 R=    0.0000 C=    0.0000
 XYZ=    3.9411    4.9195   -6.7390 Q=   -0.8200 A=    0.0000 R=    0.0000 C=    0.0000
 XYZ=    4.8582    4.7021   -6.4047 Q=    0.4100 A=    0.0000 R=    0.0000 C=    0.0000
 XYZ=    4.0057    5.5936   -7.4747 Q=    0.4100 A=    0.0000 R=    0.0000 C=    0.0000
 XYZ=    8.1122    5.8030    1.0995 Q=   -0.8200 A=    0.0000 R=    0.0000 C=    0.0000
 XYZ=    7.2066    5.4143    1.2690 Q=    0.4100 A=    0.0000 R=    0.0000 C=    0.0000
 XYZ=    8.8113    5.1123    1.2845 Q=    0.4100 A=    0.0000 R=    0.0000 C=    0.0000
 XYZ=   -6.0050   -5.5786    4.2834 Q=   -0.8200 A=    0.0000 R=    0.0000 C=    0.0000
 XYZ=   -6.8014   -5.7714    3.7103 Q=    0.4100 A=    0.0000 R=    0.0000 C=    0.0000
 XYZ=   -5.6547   -4.6663    4.0713 Q=    0.4100 A=    0.0000 R=    0.0000 C=    0.0000
 XYZ=   -0.9876    4.3772   -8.9675 Q=   -0.8200 A=    0.0000 R=    0.0000 C=    0.0000
 XYZ=   -0.7325    4.5158   -8.0106 Q=    0.4100 A=    0.0000 R=    0.0000 C=    0.0000
 XYZ=   -1.5576    5.1395   -9.2742 Q=    0.4100 A=    0.0000 R=    0.0000 C=    0.0000
 XYZ=   -6.6603    5.0629   -2.7296 Q=   -0.8200 A=    0.0000 R=    0.0000 C=    0.0000
 XYZ=   -6.7028    5.8768   -3.3091 Q=    0.4100 A=    0.0000 R=    0.0000 C=    0.0000
 XYZ=   -6.6530    4.2445   -3.3043 Q=    0.4100 A=    0.0000 R=    0.0000 C=    0.0000
 XYZ=   -0.2916    1.9169    8.0865 Q=   -0.8200 A=    0.0000 R=    0.0000 C=    0.0000
 XYZ=   -0.8963    1.1220    8.0371 Q=    0.4100 A=    0.0000 R=    0.0000 C=    0.0000
 XYZ=   -0.2027    2.2094    9.0386 Q=    0.4100 A=    0.0000 R=    0.0000 C=    0.0000
 XYZ=   -7.3495   -2.0274    3.5393 Q=   -0.8200 A=    0.0000 R=    0.0000 C=    0.0000
 XYZ=   -7.5148   -1.4774    2.7206 Q=    0.4100 A=    0.0000 R=    0.0000 C=    0.0000
 XYZ=   -8.0341   -2.7541    3.5964 Q=    0.4100 A=    0.0000 R=    0.0000 C=    0.0000
 XYZ=   -1.1500   -7.1987    4.9940 Q=   -0.8200 A=    0.0000 R=    0.0000 C=    0.0000
 XYZ=   -0.8164   -6.8289    5.8611 Q=    0.4100 A=    0.0000 R=    0.0000 C=    0.0000
 XYZ=   -2.0364   -7.6389    5.1383 Q=    0.4100 A=    0.0000 R=    0.0000 C=    0.0000
 XYZ=   -4.4599    7.5243   -1.2003 Q=   -0.8200 A=    0.0000 R=    0.0000 C=    0.0000
 XYZ=   -3.7943    8.0174   -1.7606 Q=    0.4100 A=    0.0000 R=    0.0000 C=    0.0000
 XYZ=   -5.1487    8.1645   -0.8603 Q=    0.4100 A=    0.0000 R=    0.0000 C=    0.0000
 XYZ=   -2.5135    6.2453    6.2615 Q=   -0.8200 A=    0.0000 R=    0.0000 C=    0.0000
 XYZ=   -2.9494    6.2710    5.3618 Q=    0.4100 A=    0.0000 R=    0.0000 C=    0.0000
 XYZ=   -1.9726    5.4085    6.3460 Q=    0.4100 A=    0.0000 R=    0.0000 C=    0.0000
 XYZ=   -0.9082    9.3199    1.5139 Q=   -0.8200 A=    0.0000 R=    0.0000 C=    0.0000
 XYZ=   -1.4276    8.9788    2.2974 Q=    0.4100 A=    0.0000 R=    0.0000 C=    0.0000
 XYZ=   -1.3280   10.1628    1.1772 Q=    0.4100 A=    0.0000 R=    0.0000 C=    0.0000
 XYZ=    0.9156   -8.0855    4.0258 Q=   -0.8200 A=    0.0000 R=    0.0000 C=    0.0000
 XYZ=    0.0260   -7.7589    4.3455 Q=    0.4100 A=    0.0000 R=    0.0000 C=    0.0000
 XYZ=    0.8313   -8.4148    3.0853 Q=    0.4100 A=    0.0000 R=    0.0000 C=    0.0000
 XYZ=    1.3435    8.0837    4.6903 Q=   -0.8200 A=    0.0000 R=    0.0000 C=    0.0000
 XYZ=    1.9206    7.3897    5.1209 Q=    0.4100 A=    0.0000 R=    0.0000 C=    0.0000
 XYZ=    0.3822    7.8272    4.7912 Q=    0.4100 A=    0.0000 R=    0.0000 C=    0.0000
 XYZ=    1.4771   -4.8721    7.9998 Q=   -0.8200 A=    0.0000 R=    0.0000 C=    0.0000
 XYZ=    2.0685   -4.6735    7.2183 Q=    0.4100 A=    0.0000 R=    0.0000 C=    0.0000
 XYZ=    1.7871   -5.7107    8.4478 Q=    0.4100 A=    0.0000 R=    0.0000 C=    0.0000
 XYZ=    6.4429   -1.1260    5.3599 Q=   -0.8200 A=    0.0000 R=    0.0000 C=    0.0000
 XYZ=    7.0930   -0.7741    6.0334 Q=    0.4100 A=    0.0000 R=    0.0000 C=    0.0000
 XYZ=    6.7363   -2.0323    5.0554 Q=    0.4100 A=    0.0000 R=    0.0000 C=    0.0000
 XYZ=    7.3363   -2.9297   -1.5024 Q=   -0.8200 A=    0.0000 R=    0.0000 C=    0.0000
 XYZ=    6.6038   -3.5682   -1.2660 Q=    0.4100 A=    0.0000 R=    0.0000 C=    0.0000
 XYZ=    8.2009   -3.4268   -1.5757 Q=    0.4100 A=    0.0000 R=    0.0000 C=    0.0000
 XYZ=    3.5256    2.3960    8.8432 Q=   -0.8200 A=    0.0000 R=    0.0000 C=    0.0000
 XYZ=    4.3636    2.9107    8.6621 Q=    0.4100 A=    0.0000 R=    0.0000 C=    0.0000
 XYZ=    2.9614    2.3766    8.0178 Q=    0.4100 A=    0.0000 R=    0.0000 C=    0.0000
 XYZ=   -7.5155    4.5913    0.6538 Q=   -0.8200 A=    0.0000 R=    0.0000 C=    0.0000
 XYZ=   -6.7841    3.9366    0.4628 Q=    0.4100 A=    0.0000 R=    0.0000 C=    0.0000
 XYZ=   -8.1974    4.1652    1.2484 Q=    0.4100 A=    0.0000 R=    0.0000 C=    0.0000
 XYZ=   -2.2295    8.1472    3.2130 Q=   -0.8200 A=    0.0000 R=    0.0000 C=    0.0000
 XYZ=   -2.7951    7.4258    3.6125 Q=    0.4100 A=    0.0000 R=    0.0000 C=    0.0000
 XYZ=   -2.7268    9.0143    3.2404 Q=    0.4100 A=    0.0000 R=    0.0000 C=    0.0000
 XYZ=    1.1334    9.4334    2.5936 Q=   -0.8200 A=    0.0000 R=    0.0000 C=    0.0000
 XYZ=    0.2020    9.3538    2.2382 Q=    0.4100 A=    0.0000 R=    0.0000 C=    0.0000
 XYZ=    1.2322    8.8534    3.4022 Q=    0.4100 A=    0.0000 R=    0.0000 C=    0.0000
 XYZ=    2.5923    3.5796   -8.3521 Q=   -0.8200 A=    0.0000 R=    0.0000 C=    0.0000
 XYZ=    3.2047    3.9862   -7.6741 Q=    0.4100 A=    0.0000 R=    0.0000 C=    0.0000
 XYZ=    3.0685    2.8424   -8.8316 Q=    0.4100 A=    0.0000 R=    0.0000 C=    0.0000
 XYZ=    6.8816    0.3975   -4.8224 Q=   -0.8200 A=    0.0000 R=    0.0000 C=    0.0000
 XYZ=    7.5615    0.5024   -5.5481 Q=    0.4100 A=    0.0000 R=    0.0000 C=    0.0000
 XYZ=    7.0338   -0.4683   -4.3456 Q=    0.4100 A=    0.0000 R=    0.0000 C=    0.0000
 XYZ=    6.1841   -2.6544   -5.3338 Q=   -0.8200 A=    0.0000 R=    0.0000 C=    0.0000
 XYZ=    6.7500   -2.3257   -4.5777 Q=    0.4100 A=    0.0000 R=    0.0000 C=    0.0000
 XYZ=    5.6178   -1.9048   -5.6766 Q=    0.4100 A=    0.0000 R=    0.0000 C=    0.0000
 XYZ=   -0.8070    7.5330    4.8361 Q=   -0.8200 A=    0.0000 R=    0.0000 C=    0.0000
 XYZ=   -1.3054    7.9747    4.0901 Q=    0.4100 A=    0.0000 R=    0.0000 C=    0.0000
 XYZ=   -1.4568    7.0982    5.4595 Q=    0.4100 A=    0.0000 R=    0.0000 C=    0.0000
 XYZ=   -9.3044   -0.7190    0.5722 Q=   -0.8200 A=    0.0000 R=    0.0000 C=    0.0000
 XYZ=   -9.2096   -0.3424   -0.3493 Q=    0.4100 A=    0.0000 R=    0.0000 C=    0.0000
 XYZ=   -8.4001   -0.9439    0.9350 Q=    0.4100 A=    0.0000 R=    0.0000 C=    0.0000
 XYZ=    6.4881   -5.7866    1.1210 Q=   -0.8200 A=    0.0000 R=    0.0000 C=    0.0000
 XYZ=    6.1707   -5.3454    0.2815 Q=    0.4100 A=    0.0000 R=    0.0000 C=    0.0000
 XYZ=    5.7044   -6.1579    1.6192 Q=    0.4100 A=    0.0000 R=    0.0000 C=    0.0000
 XYZ=    6.4392    2.0227    6.2192 Q=   -0.8200 A=    0.0000 R=    0.0000 C=    0.0000
 XYZ=    7.1286    2.5969    5.7774 Q=    0.4100 A=    0.0000 R=    0.0000 C=    0.0000
 XYZ=    6.1058    2.4777    7.0449 Q=    0.4100 A=    0.0000 R=    0.0000 C=    0.0000
 XYZ=    9.0698    1.2847   -2.1368 Q=   -0.8200 A=    0.0000 R=    0.0000 C=    0.0000
 XYZ=    8.2887    1.6053   -2.6726 Q=    0.4100 A=    0.0000 R=    0.0000 C=    0.0000
 XYZ=    8.7414    0.7906   -1.3318 Q=    0.4100 A=    0.0000 R=    0.0000 C=    0.0000
 XYZ=   -3.0791    9.2740   -2.1002 Q=   -0.8200 A=    0.0000 R=    0.0000 C=    0.0000
 XYZ=   -3.5889    9.9929   -1.6276 Q=    0.4100 A=    0.0000 R=    0.0000 C=    0.0000
 XYZ=   -2.0987    9.4563   -2.0250 Q=    0.4100 A=    0.0000 R=    0.0000 C=    0.0000
 XYZ=   -0.4847   -6.2239    7.1190 Q=   -0.8200 A=    0.0000 R=    0.0000 C=    0.0000
 XYZ=    0.3788   -5.7601    7.3174 Q=    0.4100 A=    0.0000 R=    0.0000 C=    0.0000
 XYZ=   -1.2480   -5.6249    7.3610 Q=    0.4100 A=    0.0000 R=    0.0000 C=    0.0000
 XYZ=   -1.9739    2.3479   -9.5572 Q=   -0.8200 A=    0.0000 R=    0.0000 C=    0.0000
 XYZ=   -2.9221    2.2061   -9.2728 Q=    0.4100 A=    0.0000 R=    0.0000 C=    0.0000
 XYZ=   -1.6533    3.2327   -9.2189 Q=    0.4100 A=    0.0000 R=    0.0000 C=    0.0000
 XYZ=    7.3404   -1.6673   -3.6084 Q=   -0.8200 A=    0.0000 R=    0.0000 C=    0.0000
 XYZ=    8.3042   -1.4014   -3.6277 Q=    0.4100 A=    0.0000 R=    0.0000 C=    0.0000
 XYZ=    7.1604   -2.2085   -2.7870 Q=    0.4100 A=    0.0000 R=    0.0000 C=    0.0000
 XYZ=   -3.0732    8.8716   -4.6998 Q=   -0.8200 A=    0.0000 R=    0.0000 C=    0.0000
 XYZ=   -3.1739    8.8654   -3.7049 Q=    0.4100 A=    0.0000 R=    0.0000 C=    0.0000
 XYZ=   -2.7133    7.9896   -5.0039 Q=    0.4100 A=    0.0000 R=    0.0000 C=    0.0000
 XYZ=   -4.6841   -8.5947   -1.4966 Q=   -0.8200 A=    0.0000 R=    0.0000 C=    0.0000
 XYZ=   -5.3935   -8.5935   -0.7918 Q=    0.4100 A=    0.0000 R=    0.0000 C=    0.0000
 XYZ=   -4.8809   -9.3108   -2.1663 Q=    0.4100 A=    0.0000 R=    0.0000 C=    0.0000
 XYZ=    5.3345   -6.1587   -2.7656 Q=   -0.8200 A=    0.0000 R=    0.0000 C=    0.0000
 XYZ=    6.0939   -6.7969   -2.6385 Q=    0.4100 A=    0.0000 R=    0.0000 C=    0.0000
 XYZ=    5.5374   -5.5474   -3.5306 Q=    0.4100 A=    0.0000 R=    0.0000 C=    0.0000
 XYZ=    7.7747   -3.9851    1.9663 Q=   -0.8200 A=    0.0000 R=    0.0000 C=    0.0000
 XYZ=    7.3956   -3.6435    2.8262 Q=    0.4100 A=    0.0000 R=    0.0000 C=    0.0000
 XYZ=    7.2059   -4.7337    1.6254 Q=    0.4100 A=    0.0000 R=    0.0000 C=    0.0000
 XYZ=    9.5980    4.1709    1.4919 Q=   -0.8200 A=    0.0000 R=    0.0000 C=    0.0000
 XYZ=    9.9194    3.7550    2.3427 Q=    0.4100 A=    0.0000 R=    0.0000 C=    0.0000
 XYZ=    8.7641    3.7091    1.1895 Q=    0.4100 A=    0.0000 R=    0.0000 C=    0.0000
 XYZ=   -4.9920    3.6523   -8.2868 Q=   -0.8200 A=    0.0000 R=    0.0000 C=    0.0000
 XYZ=   -4.7528    4.2638   -9.0410 Q=    0.4100 A=    0.0000 R=    0.0000 C=    0.0000
 XYZ=   -4.7038    2.7208   -8.5088 Q=    0.4100 A=    0.0000 R=    0.0000 C=    0.0000
 XYZ=    0.2274   -3.1768    9.0398 Q=   -0.8200 A=    0.0000 R=    0.0000 C=    0.0000
 XYZ=    0.8068   -3.8919    8.6486 Q=    0.4100 A=    0.0000 R=    0.0000 C=    0.0000
 XYZ=   -0.5341   -3.5976    9.5329 Q=    0.4100 A=    0.0000 R=    0.0000 C=    0.0000
 XYZ=   -9.2029    1.3952    1.6547 Q=   -0.8200 A=    0.0000 R=    0.0000 C=    0.0000
 XYZ=   -8.2219    1.5871    1.6279 Q=    0.4100 A=    0.0000 R=    0.0000 C=    0.0000
 XYZ=   -9.3920    0.5546    1.1470 Q=    0.4100 A=    0.0000 R=    0.0000 C=    0.0000
 XYZ=   -2.5375   -5.0035    7.8254 Q=   -0.8200 A=    0.0000 R=    0.0000 C=    0.0000
 XYZ=   -3.2462   -5.7077    7.7837 Q=    0.4100 A=    0.0000 R=    0.0000 C=    0.0000
 XYZ=   -2.2556   -4.8701    8.7756 Q=    0.4100 A=    0.0000 R=    0.0000 C=    0.0000
 XYZ=   -6.1701   -8.3710    0.1991 Q=   -0.8200 A=    0.0000 R=    0.0000 C=    0.0000
 XYZ=   -6.5887   -7.4723    0.3298 Q=    0.4100 A=    0.0000 R=    0.0000 C=    0.0000
 XYZ=   -5.9067   -8.7484    1.0870 Q=    0.4100 A=    0.0000 R=    0.0000 C=    0.0000
 XYZ=   -6.3317   -6.3057   -4.9431 Q=   -0.8200 A=    0.0000 R=    0.0000 C=    0.0000
 XYZ=   -6.0080   -5.8156   -5.7525 Q=    0.4100 A=    0.0000 R=    0.0000 C=    0.0000
 XYZ=   -7.1648   -6.8103   -5.1702 Q=    0.4100 A=    0.0000 R=    0.0000 C=    0.0000
 XYZ=   -8.3550    3.8935   -1.4656 Q=   -0.8200 A=    0.0000 R=    0.0000 C=    0.0000
 XYZ=   -7.7848    4.4474   -2.0723 Q=    0.4100 A=    0.0000 R=    0.0000 C=    0.0000
 XYZ=   -8.1137    4.0853   -0.5143 Q=    0.4100 A=    0.0000 R=    0.0000 C=    0.0000
 XYZ=    1.9125   11.4487   -1.0260 Q=   -0.8200 A=    0.0000 R=    0.0000 C=    0.0000
 XYZ=    2.7805   11.9441   -0.9895 Q=    0.4100 A=    0.0000 R=    0.0000 C=    0.0000
 XYZ=    2.0311   10.6071   -1.5529 Q=    0.4100 A=    0.0000 R=    0.0000 C=    0.0000
 XYZ=   10.1603    0.2088    0.4795 Q=   -0.8200 A=    0.0000 R=    0.0000 C=    0.0000
 XYZ=   10.1987    0.0488    1.4659 Q=    0.4100 A=    0.0000 R=    0.0000 C=    0.0000
 XYZ=    9.2075    0.3190    0.1966 Q=    0.4100 A=    0.0000 R=    0.0000 C=    0.0000
 XYZ=   -3.4532   -7.9775    5.6065 Q=   -0.8200 A=    0.0000 R=    0.0000 C=    0.0000
 XYZ=   -3.7044   -7.7196    4.6736 Q=    0.4100 A=    0.0000 R=    0.0000 C=    0.0000
 XYZ=   -3.9410   -7.3944    6.2562 Q=    0.4100 A=    0.0000 R=    0.0000 C=    0.0000
 XYZ=    5.8757   -4.9422   -4.9126 Q=   -0.8200 A=    0.0000 R=    0.0000 C=    0.0000
 XYZ=    5.9367   -3.9449   -4.9537 Q=    0.4100 A=    0.0000 R=    0.0000 C=    0.0000
 XYZ=    5.4472   -5.2846   -5.7487 Q=    0.4100 A=    0.0000 R=    0.0000 C=    0.0000
 XYZ=   -7.7153   -6.0681    2.8182 Q=   -0.8200 A=    0.0000 R=    0.0000 C=    0.0000
 XYZ=   -7.7064   -5.8998    1.8325 Q=    0.4100 A=    0.0000 R=    0.0000 C=    0.0000
 XYZ=   -8.1802   -6.9338    3.0042 Q=    0.4100 A=    0.0000 R=    0.0000 C=    0.0000
 XYZ=   -5.0749   -8.3498   -5.0864 Q=   -0.8200 A=    0.0000 R=    0.0000 C=    0.0000
 XYZ=   -5.4185   -7.4759   -4.7427 Q=    0.4100 A=    0.0000 R=    0.0000 C=    0.0000
 XYZ=   -5.8451   -8.9563   -5.2839 Q=    0.4100 A=    0.0000 R=    0.0000 C=    0.0000
 XYZ=    5.2696   -1.7309   -8.8861 Q=   -0.8200 A=    0.0000 R=    0.0000 C=    0.0000
 XYZ=    5.5758   -2.5928   -8.4818 Q=    0.4100 A=    0.0000 R=    0.0000 C=    0.0000
 XYZ=    4.4100   -1.4494   -8.4596 Q=    0.4100 A=    0.0000 R=    0.0000 C=    0.0000
 XYZ=    6.4612    5.2623    5.9000 Q=   -0.8200 A=    0.0000 R=    0.0000 C=    0.0000
 XYZ=    7.1111    6.0029    5.7292 Q=    0.4100 A=    0.0000 R=    0.0000 C=    0.0000
 XYZ=    6.9487    4.4685    6.2637 Q=    0.4100 A=    0.0000 R=    0.0000 C=    0.0000
 XYZ=   -7.2735    1.2206    6.4559 Q=   -0.8200 A=    0.0000 R=    0.0000 C=    0.0000
 XYZ=   -6.8599    0.4962    5.9043 Q=    0.4100 A=    0.0000 R=    0.0000 C=    0.0000
 XYZ=   -6.8788    2.1025    6.1979 Q=    0.4100 A=    0.0000 R=    0.0000 C=    0.0000
 XYZ=    5.0502    0.0219    8.1823 Q=   -0.8200 A=    0.0000 R=    0.0000 C=    0.0000
 XYZ=    6.0401   -0.0477    8.3056 Q=    0.4100 A=    0.0000 R=    0.0000 C=    0.0000
 XYZ=    4.7467    0.9406    8.4351 Q=    0.4100 A=    0.0000 R=    0.0000 C=    0.0000
 XYZ=    9.6150    3.1881    3.7186 Q=   -0.8200 A=    0.0000 R=    0.0000 C=    0.0000
 XYZ=    9.0048    2.4760    3.3712 Q=    0.4100 A=    0.0000 R=    0.0000 C=    0.0000
 XYZ=   10.5047    2.7871    3.9371 Q=    0.4100 A=    0.0000 R=    0.0000 C=    0.0000
 XYZ=    1.8251   11.3447    1.4164 Q=   -0.8200 A=    0.0000 R=    0.0000 C=    0.0000
 XYZ=    1.6054   10.5241    1.9441 Q=    0.4100 A=    0.0000 R=    0.0000 C=    0.0000
 XYZ=    1.7428   11.1449    0.4400 Q=    0.4100 A=    0.0000 R=    0.0000 C=    0.0000
 XYZ=    6.5303    4.9728   -6.5519 Q=   -0.8200 A=    0.0000 R=    0.0000 C=    0.0000
 XYZ=    7.1760    5.7288   -6.4444 Q=    0.4100 A=    0.0000 R=    0.0000 C=    0.0000
 XYZ=    6.9794    4.2159   -7.0267 Q=    0.4100 A=    0.0000 R=    0.0000 C=    0.0000
 XYZ=   -5.4727   -9.0522    2.3669 Q=   -0.8200 A=    0.0000 R=    0.0000 C=    0.0000
 XYZ=   -4.9963   -8.2470    2.7203 Q=    0.4100 A=    0.0000 R=    0.0000 C=    0.0000
 XYZ=   -4.8614   -9.8429    2.4013 Q=    0.4100 A=    0.0000 R=    0.0000 C=    0.0000
 XYZ=    7.7022    0.0445    7.1979 Q=   -0.8200 A=    0.0000 R=    0.0000 C=    0.0000
 XYZ=    7.2011    0.7653    6.7191 Q=    0.4100 A=    0.0000 R=    0.0000 C=    0.0000
 XYZ=    8.5304    0.4288    7.6059 Q=    0.4100 A=    0.0000 R=    0.0000 C=    0.0000
 XYZ=    1.0776    4.4896  -10.0081 Q=   -0.8200 A=    0.0000 R=    0.0000 C=    0.0000
 XYZ=    0.1664    4.2653   -9.6625 Q=    0.4100 A=    0.0000 R=    0.0000 C=    0.0000
 XYZ=    1.7542    4.3369   -9.2877 Q=    0.4100 A=    0.0000 R=    0.0000 C=    0.0000
 XYZ=    8.5502    7.3508   -0.5645 Q=   -0.8200 A=    0.0000 R=    0.0000 C=    0.0000
 XYZ=    8.8454    8.1877   -0.1035 Q=    0.4100 A=    0.0000 R=    0.0000 C=    0.0000
 XYZ=    8.3529    6.6466    0.1176 Q=    0.4100 A=    0.0000 R=    0.0000 C=    0.0000
 XYZ=    1.1415   10.1431   -4.5872 Q=   -0.8200 A=    0.0000 R=    0.0000 C=    0.0000
 XYZ=    0.1544   10.2233   -4.7259 Q=    0.4100 A=    0.0000 R=    0.0000 C=    0.0000
 XYZ=    1.6060   10.1756   -5.4722 Q=    0.4100 A=    0.0000 R=    0.0000 C=    0.0000
 XYZ=   -5.5001   -5.5136   -7.0391 Q=   -0.8200 A=    0.0000 R=    0.0000 C=    0.0000
 XYZ=   -5.4800   -4.6474   -7.5384 Q=    0.4100 A=    0.0000 R=    0.0000 C=    0.0000
 XYZ=   -6.2807   -6.0576   -7.3469 Q=    0.4100 A=    0.0000 R=    0.0000 C=    0.0000
 XYZ=   -3.8135   -7.3599   -6.8086 Q=   -0.8200 A=    0.0000 R=    0.0000 C=    0.0000
 XYZ=   -4.4594   -6.6033   -6.9106 Q=    0.4100 A=    0.0000 R=    0.0000 C=    0.0000
 XYZ=   -4.1433   -7.9867   -6.1026 Q=    0.4100 A=    0.0000 R=    0.0000 C=    0.0000
 XYZ=   -0.9303   -1.3982  -10.9907 Q=   -0.8200 A=    0.0000 R=    0.0000 C=    0.0000
 XYZ=   -0.7862   -2.2074  -11.5602 Q=    0.4100 A=    0.0000 R=    0.0000 C=    0.0000
 XYZ=   -1.5469   -1.6265  -10.2372 Q=    0.4100 A=    0.0000 R=    0.0000 C=    0.0000
 XYZ=   -1.6994    5.4622    9.2384 Q=   -0.8200 A=    0.0000 R=    0.0000 C=    0.0000
 XYZ=   -2.1446    6.2694    8.8506 Q=    0.4100 A=    0.0000 R=    0.0000 C=    0.0000
 XYZ=   -1.1224    5.0335    8.5432 Q=    0.4100 A=    0.0000 R=    0.0000 C=    0.0000
 XYZ=   -6.7715    6.1438    2.2382 Q=   -0.8200 A=    0.0000 R=    0.0000 C=    0.0000
 XYZ=   -7.2901    5.8793    3.0513 Q=    0.4100 A=    0.0000 R=    0.0000 C=    0.0000
 XYZ=   -7.0497    5.5733    1.4653 Q=    0.4100 A=    0.0000 R=    0.0000 C=    0.0000
 XYZ=    8.8502    5.1281   -3.3742 Q=   -0.8200 A=    0.0000 R=    0.0000 C=    0.0000
 XYZ=    9.4737    4.5696   -2.8270 Q=    0.4100 A=    0.0000 R=    0.0000 C=    0.0000
 XYZ=    8.9855    6.0936   -3.1519 Q=    0.4100 A=    0.0000 R=    0.0000 C=    0.0000
 XYZ=    5.7186    3.2094    8.0722 Q=   -0.8200 A=    0.0000 R=    0.0000 C=    0.0000
 XYZ=    6.3546    2.9990    8.8146 Q=    0.4100 A=    0.0000 R=    0.0000 C=    0.0000
 XYZ=    5.6594    4.2008    7.9549 Q=    0.4100 A=    0.0000 R=    0.0000 C=    0.0000
 XYZ=    5.8259   -3.6481   -7.5235 Q=   -0.8200 A=    0.0000 R=    0.0000 C=    0.0000
 XYZ=    5.9889   -3.1574   -6.6676 Q=    0.4100 A=    0.0000 R=    0.0000 C=    0.0000
 XYZ=    6.7015   -3.9102   -7.9293 Q=    0.4100 A=    0.0000 R=    0.0000 C=    0.0000
 XYZ=   -5.4876    3.1871    6.6939 Q=   -0.8200 A=    0.0000 R=    0.0000 C=    0.0000
 XYZ=   -5.7308    2.7535    7.5615 Q=    0.4100 A=    0.0000 R=    0.0000 C=    0.0000
 XYZ=   -5.0148    4.0498    6.8735 Q=    0.4100 A=    0.0000 R=    0.0000 C=    0.0000
 XYZ=   -8.7827    2.2569   -5.1261 Q=   -0.8200 A=    0.0000 R=    0.0000 C=    0.0000
 XYZ=   -8.8907    2.0355   -4.1569 Q=    0.4100 A=    0.0000 R=    0.0000 C=    0.0000
 XYZ=   -9.6650    2.1684   -5.5885 Q=    0.4100 A=    0.0000 R=    0.0000 C=    0.0000
 XYZ=    9.5693   -0.7395   -2.9429 Q=   -0.8200 A=    0.0000 R=    0.0000 C=    0.0000
 XYZ=    9.2620    0.1711   -2.6666 Q=    0.4100 A=    0.0000 R=    0.0000 C=    0.0000
 XYZ=    9.9324   -1.2243   -2.1471 Q=    0.4100 A=    0.0000 R=    0.0000 C=    0.0000
 XYZ=    4.1295    1.9214   -9.3904 Q=   -0.8200 A=    0.0000 R=    0.0000 C=    0.0000
 XYZ=    5.1252    2.0143   -9.3890 Q=    0.4100 A=    0.0000 R=    0.0000 C=    0.0000
 XYZ=    3.8151    1.7181  -10.3176 Q=    0.4100 A=    0.0000 R=    0.0000 C=    0.0000
 XYZ=    5.5391    5.6312    8.1025 Q=   -0.8200 A=    0.0000 R=    0.0000 C=    0.0000
 XYZ=    6.3879    6.0184    8.4626 Q=    0.4100 A=    0.0000 R=    0.0000 C=    0.0000
 XYZ=    5.4934    5.7879    7.1159 Q=    0.4100 A=    0.0000 R=    0.0000 C=    0.0000
 XYZ=   -9.4977    2.1909   -2.7475 Q=   -0.8200 A=    0.0000 R=    0.0000 C=    0.0000
 XYZ=  -10.4689    2.3884   -2.8815 Q=    0.4100 A=    0.0000 R=    0.0000 C=    0.0000
 XYZ=   -9.0323    3.0134   -2.4206 Q=    0.4100 A=    0.0000 R=    0.0000 C=    0.0000
 XYZ=   -4.6753    5.3157    7.3767 Q=   -0.8200 A=    0.0000 R=    0.0000 C=    0.0000
 XYZ=   -5.4647    5.9293    7.3963 Q=    0.4100 A=    0.0000 R=    0.0000 C=    0.0000
 XYZ=   -3.9115    5.7698    6.9181 Q=    0.4100 A=    0.0000 R=    0.0000 C=    0.0000
 XYZ=    8.1642    3.3002    5.8075 Q=   -0.8200 A=    0.0000 R=    0.0000 C=    0.0000
 XYZ=    8.8183    3.1200    5.0729 Q=    0.4100 A=    0.0000 R=    0.0000 C=    0.0000
 XYZ=    8.6577    3.5680    6.6350 Q=    0.4100 A=    0.0000 R=    0.0000 C=    0.0000
 XYZ=   -1.3020   10.5301   -5.1372 Q=   -0.8200 A=    0.0000 R=    0.0000 C=    0.0000
 XYZ=   -1.5655   11.4417   -4.8217 Q=    0.4100 A=    0.0000 R=    0.0000 C=    0.0000
 XYZ=   -1.9666    9.8588   -4.8090 Q=    0.4100 A=    0.0000 R=    0.0000 C=    0.0000
 XYZ=   -4.5974   -0.4600   -9.7824 Q=   -0.8200 A=    0.0000 R=    0.0000 C=    0.0000
 XYZ=   -5.4663   -0.9543   -9.7579 Q=    0.4100 A=    0.0000 R=    0.0000 C=    0.0000
 XYZ=   -4.2838   -0.3840  -10.7289 Q=    0.4100 A=    0.0000 R=    0.0000 C=    0.0000
 XYZ=   -0.1316   -6.3951   -9.2160 Q=   -0.8200 A=    0.0000 R=    0.0000 C=    0.0000
 XYZ=    0.0758   -5.5060   -8.8077 Q=    0.4100 A=    0.0000 R=    0.0000 C=    0.0000
 XYZ=   -0.8934   -6.8177   -8.7249 Q=    0.4100 A=    0.0000 R=    0.0000 C=    0.0000
 XYZ=   -5.0061   -3.7139   -8.5860 Q=   -0.8200 A=    0.0000 R=    0.0000 C=    0.0000
 XYZ=   -4.5013   -4.1552   -9.3279 Q=    0.4100 A=    0.0000 R=    0.0000 C=    0.0000
 XYZ=   -5.5044   -2.9248   -8.9452 Q=    0.4100 A=    0.0000 R=    0.0000 C=    0.0000
 XYZ=   10.2089    3.5744   -2.2198 Q=   -0.8200 A=    0.0000 R=    0.0000 C=    0.0000
 XYZ=    9.8310    2.6539   -2.1203 Q=    0.4100 A=    0.0000 R=    0.0000 C=    0.0000
 XYZ=   10.6264    3.8584   -1.3566 Q=    0.4100 A=    0.0000 R=    0.0000 C=    0.0000
 XYZ=    0.8635   10.3666    5.3414 Q=   -0.8200 A=    0.0000 R=    0.0000 C=    0.0000
 XYZ=    1.2091    9.4895    5.0079 Q=    0.4100 A=    0.0000 R=    0.0000 C=    0.0000
 XYZ=    1.2071   11.1034    4.7591 Q=    0.4100 A=    0.0000 R=    0.0000 C=    0.0000
 XYZ=   -1.8196   -7.6619   -8.0424 Q=   -0.8200 A=    0.0000 R=    0.0000 C=    0.0000
 XYZ=   -2.1395   -7.9732   -8.9373 Q=    0.4100 A=    0.0000 R=    0.0000 C=    0.0000
 XYZ=   -2.6050   -7.4096   -7.4771 Q=    0.4100 A=    0.0000 R=    0.0000 C=    0.0000
 XYZ=   -6.3987   -6.0414    6.5965 Q=   -0.8200 A=    0.0000 R=    0.0000 C=    0.0000
 XYZ=   -6.3536   -5.8915    5.6088 Q=    0.4100 A=    0.0000 R=    0.0000 C=    0.0000
 XYZ=   -6.5189   -5.1642    7.0616 Q=    0.4100 A=    0.0000 R=    0.0000 C=    0.0000
 XYZ=   -7.4612    5.1150    4.4128 Q=   -0.8200 A=    0.0000 R=    0.0000 C=    0.0000
 XYZ=   -6.9028    4.2919    4.5167 Q=    0.4100 A=    0.0000 R=    0.0000 C=    0.0000
 XYZ=   -6.9882    5.8930    4.8263 Q=    0.4100 A=    0.0000 R=    0.0000 C=    0.0000
 XYZ=   -1.5725  -10.8768    1.8425 Q=   -0.8200 A=    0.0000 R=    0.0000 C=    0.0000
 XYZ=   -0.8185  -10.2928    2.1430 Q=    0.4100 A=    0.0000 R=    0.0000 C=    0.0000
 XYZ=   -1.5413  -10.9760    0.8479 Q=    0.4100 A=    0.0000 R=    0.0000 C=    0.0000
 XYZ=    1.3389   -0.5990  -11.3599 Q=   -0.8200 A=    0.0000 R=    0.0000 C=    0.0000
 XYZ=    1.9835   -1.3620  -11.3107 Q=    0.4100 A=    0.0000 R=    0.0000 C=    0.0000
 XYZ=    0.4713   -0.8682  -10.9418 Q=    0.4100 A=    0.0000 R=    0.0000 C=    0.0000
 XYZ=   -8.8786   -3.8538    3.8923 Q=   -0.8200 A=    0.0000 R=    0.0000 C=    0.0000
 XYZ=   -8.4147   -4.7368    3.8207 Q=    0.4100 A=    0.0000 R=    0.0000 C=    0.0000
 XYZ=   -9.7240   -3.9630    4.4153 Q=    0.4100 A=    0.0000 R=    0.0000 C=    0.0000
 XYZ=    1.2229   -1.9524   10.9729 Q=   -0.8200 A=    0.0000 R=    0.0000 C=    0.0000
 XYZ=    1.1037   -2.4771   10.1300 Q=    0.4100 A=    0.0000 R=    0.0000 C=    0.0000
 XYZ=    0.3981   -1.4156   11.1508 Q=    0.4100 A=    0.0000 R=    0.0000 C=    0.0000
 XYZ=   -4.6845  -10.2468   -3.4164 Q=   -0.8200 A=    0.0000 R=    0.0000 C=    0.0000
 XYZ=   -5.4899  -10.7929   -3.6466 Q=    0.4100 A=    0.0000 R=    0.0000 C=    0.0000
 XYZ=   -4.6574   -9.4322   -3.9958 Q=    0.4100 A=    0.0000 R=    0.0000 C=    0.0000
 XYZ=    8.7097    6.9883    3.1971 Q=   -0.8200 A=    0.0000 R=    0.0000 C=    0.0000
 XYZ=    9.4366    6.5031    3.6831 Q=    0.4100 A=    0.0000 R=    0.0000 C=    0.0000
 XYZ=    8.6432    6.6394    2.2623 Q=    0.4100 A=    0.0000 R=    0.0000 C=    0.0000
 XYZ=   -1.3842  -10.8261   -0.5713 Q=   -0.8200 A=    0.0000 R=    0.0000 C=    0.0000
 XYZ=   -0.4870  -11.2241   -0.7627 Q=    0.4100 A=    0.0000 R=    0.0000 C=    0.0000
 XYZ=   -1.9691  -10.9194   -1.3771 Q=    0.4100 A=    0.0000 R=    0.0000 C=    0.0000
 XYZ=    2.2981    2.0181   10.8480 Q=   -0.8200 A=    0.0000 R=    0.0000 C=    0.0000
 XYZ=    2.7896    1.9998    9.9773 Q=    0.4100 A=    0.0000 R=    0.0000 C=    0.0000
 XYZ=    2.4935    1.1807   11.3586 Q=    0.4100 A=    0.0000 R=    0.0000 C=    0.0000
 XYZ=  -11.0759   -0.4347   -2.7461 Q=   -0.8200 A=    0.0000 R=    0.0000 C=    0.0000
 XYZ=  -11.4154    0.5057   -2.7240 Q=    0.4100 A=    0.0000 R=    0.0000 C=    0.0000
 XYZ=  -10.1418   -0.4602   -2.3901 Q=    0.4100 A=    0.0000 R=    0.0000 C=    0.0000
 XYZ=   -2.3816   11.0999    0.7257 Q=   -0.8200 A=    0.0000 R=    0.0000 C=    0.0000
 XYZ=   -3.1249   11.2274    1.3825 Q=    0.4100 A=    0.0000 R=    0.0000 C=    0.0000
 XYZ=   -2.7614   11.0203   -0.1960 Q=    0.4100 A=    0.0000 R=    0.0000 C=    0.0000
 XYZ=   -2.0649    2.7923  -11.8560 Q=   -0.8200 A=    0.0000 R=    0.0000 C=    0.0000
 XYZ=   -1.9402    2.6383  -10.8758 Q=    0.4100 A=    0.0000 R=    0.0000 C=    0.0000
 XYZ=   -2.0315    1.9166  -12.3378 Q=    0.4100 A=    0.0000 R=    0.0000 C=    0.0000
 XYZ=   -2.6245    7.5166    8.3228 Q=   -0.8200 A=    0.0000 R=    0.0000 C=    0.0000
 XYZ=   -2.4966    7.1072    7.4194 Q=    0.4100 A=    0.0000 R=    0.0000 C=    0.0000
 XYZ=   -3.5963    7.5071    8.5584 Q=    0.4100 A=    0.0000 R=    0.0000 C=    0.0000
 XYZ=    2.0612    4.9474    9.6193 Q=   -0.8200 A=    0.0000 R=    0.0000 C=    0.0000
 XYZ=    1.1394    5.0804    9.9836 Q=    0.4100 A=    0.0000 R=    0.0000 C=    0.0000
 XYZ=    2.3574    4.0088    9.7965 Q=    0.4100 A=    0.0000 R=    0.0000 C=    0.0000
 XYZ=   -7.3420    3.7992   -8.9530 Q=   -0.8200 A=    0.0000 R=    0.0000 C=    0.0000
 XYZ=   -7.2243    4.3427   -9.7842 Q=    0.4100 A=    0.0000 R=    0.0000 C=    0.0000
 XYZ=   -6.4682    3.7334   -8.4712 Q=    0.4100 A=    0.0000 R=    0.0000 C=    0.0000
 XYZ=    8.6486   -6.7782    0.8599 Q=   -0.8200 A=    0.0000 R=    0.0000 C=    0.0000
 XYZ=    9.2655   -5.9925    0.9043 Q=    0.4100 A=    0.0000 R=    0.0000 C=    0.0000
 XYZ=    7.7045   -6.4673    0.9694 Q=    0.4100 A=    0.0000 R=    0.0000 C=    0.0000
 XYZ=    4.4893   -0.4414   10.6003 Q=   -0.8200 A=    0.0000 R=    0.0000 C=    0.0000
 XYZ=    4.4454   -0.5078    9.6035 Q=    0.4100 A=    0.0000 R=    0.0000 C=    0.0000
 XYZ=    5.2726    0.1223   10.8626 Q=    0.4100 A=    0.0000 R=    0.0000 C=    0.0000
 XYZ=    9.1324    7.3720   -2.8203 Q=   -0.8200 A=    0.0000 R=    0.0000 C=    0.0000
 XYZ=    8.3733    7.8150   -3.2974 Q=    0.4100 A=    0.0000 R=    0.0000 C=    0.0000
 XYZ=    8.9896    7.4384   -1.8328 Q=    0.4100 A=    0.0000 R=    0.0000 C=    0.0000
 XYZ=    0.1432   -7.6889    9.1140 Q=   -0.8200 A=    0.0000 R=    0.0000 C=    0.0000
 XYZ=   -0.1987   -7.5073    8.1920 Q=    0.4100 A=    0.0000 R=    0.0000 C=    0.0000
 XYZ=    1.0414   -7.2639    9.2262 Q=    0.4100 A=    0.0000 R=    0.0000 C=    0.0000
 XYZ=    7.3599   -0.2403   -8.6766 Q=   -0.8200 A=    0.0000 R=    0.0000 C=    0.0000
 XYZ=    7.7744   -0.0238   -7.7926 Q=    0.4100 A=    0.0000 R=    0.0000 C=    0.0000
 XYZ=    6.4365   -0.5965   -8.5335 Q=    0.4100 A=    0.0000 R=    0.0000 C=    0.0000
 XYZ=    9.7662   -4.5565    0.5690 Q=   -0.8200 A=    0.0000 R=    0.0000 C=    0.0000
 XYZ=    9.0389   -4.2509    1.1836 Q=    0.4100 A=    0.0000 R=    0.0000 C=    0.0000
 XYZ=    9.4578   -4.4751   -0.3788 Q=    0.4100 A=    0.0000 R=    0.0000 C=    0.0000
 XYZ=   -3.1279   10.1606    3.5416 Q=   -0.8200 A=    0.0000 R=    0.0000 C=    0.0000
 XYZ=   -2.6150   10.6223    4.2653 Q=    0.4100 A=    0.0000 R=    0.0000 C=    0.0000
 XYZ=   -3.5695   10.8429    2.9588 Q=    0.4100 A=    0.0000 R=    0.0000 C=    0.0000
 XYZ=    9.9012    5.0054   -5.4350 Q=   -0.8200 A=    0.0000 R=    0.0000 C=    0.0000
 XYZ=    9.3918    4.8393   -4.5906 Q=    0.4100 A=    0.0000 R=    0.0000 C=    0.0000
 XYZ=   10.8822    4.9521   -5.2484 Q=    0.4100 A=    0.0000 R=    0.0000 C=    0.0000
 XYZ=   -0.0338    2.5496   10.4183 Q=   -0.8200 A=    0.0000 R=    0.0000 C=    0.0000
 XYZ=    0.9224    2.3060   10.5806 Q=    0.4100 A=    0.0000 R=    0.0000 C=    0.0000
 XYZ=   -0.1526    3.5346   10.5437 Q=    0.4100 A=    0.0000 R=    0.0000 C=    0.0000
 XYZ=   -6.9670    8.6378    2.1640 Q=   -0.8200 A=    0.0000 R=    0.0000 C=    0.0000
 XYZ=   -6.8366    7.6559    2.0257 Q=    0.4100 A=    0.0000 R=    0.0000 C=    0.0000
 XYZ=   -6.3565    8.9562    2.8891 Q=    0.4100 A=    0.0000 R=    0.0000 C=    0.0000
 XYZ=   -5.7681    6.8314    5.1854 Q=   -0.8200 A=    0.0000 R=    0.0000 C=    0.0000
 XYZ=   -5.4972    7.6757    4.7229 Q=    0.4100 A=    0.0000 R=    0.0000 C=    0.0000
 XYZ=   -5.9779    7.0285    6.1431 Q=    0.4100 A=    0.0000 R=    0.0000 C=    0.0000
 XYZ=   -4.4108   -6.6508    7.7465 Q=   -0.8200 A=    0.0000 R=    0.0000 C=    0.0000
 XYZ=   -4.5030   -7.4136    8.3866 Q=    0.4100 A=    0.0000 R=    0.0000 C=    0.0000
 XYZ=   -5.2438   -6.5730    7.1987 Q=    0.4100 A=    0.0000 R=    0.0000 C=    0.0000
 XYZ=  -11.3826   -1.8668    0.9530 Q=   -0.8200 A=    0.0000 R=    0.0000 C=    0.0000
 XYZ=  -10.5938   -1.2592    1.0461 Q=    0.4100 A=    0.0000 R=    0.0000 C=    0.0000
 XYZ=  -11.1036   -2.8072    1.1476 Q=    0.4100 A=    0.0000 R=    0.0000 C=    0.0000
 XYZ=    2.9591    1.2286  -11.4823 Q=   -0.8200 A=    0.0000 R=    0.0000 C=    0.0000
 XYZ=    2.5712    2.0772  -11.8421 Q=    0.4100 A=    0.0000 R=    0.0000 C=    0.0000
 XYZ=    2.2206    0.5897  -11.2667 Q=    0.4100 A=    0.0000 R=    0.0000 C=    0.0000
 XYZ=   -1.7198   -4.2228   10.1324 Q=   -0.8200 A=    0.0000 R=    0.0000 C=    0.0000
 XYZ=   -1.9364   -5.0948   10.5714 Q=    0.4100 A=    0.0000 R=    0.0000 C=    0.0000
 XYZ=   -1.9485   -3.4719   10.7520 Q=    0.4100 A=    0.0000 R=    0.0000 C=    0.0000
 XYZ=   -2.1830    6.1356   -9.7634 Q=   -0.8200 A=    0.0000 R=    0.0000 C=    0.0000
 XYZ=   -1.7052    6.6324  -10.4880 Q=    0.4100 A=    0.0000 R=    0.0000 C=    0.0000
 XYZ=   -3.1450    6.0253  -10.0133 Q=    0.4100 A=    0.0000 R=    0.0000 C=    0.0000
 XYZ=   -8.3316   -9.0075   -0.6510 Q=   -0.8200 A=    0.0000 R=    0.0000 C=    0.0000
 XYZ=   -8.6590   -8.0756   -0.8073 Q=    0.4100 A=    0.0000 R=    0.0000 C=    0.0000
 XYZ=   -7.3565   -8.9856   -0.4302 Q=    0.4100 A=    0.0000 R=    0.0000 C=    0.0000
 XYZ=   -9.5596    3.8043    1.5403 Q=   -0.8200 A=    0.0000 R=    0.0000 C=    0.0000
 XYZ=   -9.9634    4.1319    0.6860 Q=    0.4100 A=    0.0000 R=    0.0000 C=    0.0000
 XYZ=   -9.5353    2.8046    1.5355 Q=    0.4100 A=    0.0000 R=    0.0000 C=    0.0000
 XYZ=   -8.6686    4.3153   -7.0301 Q=   -0.8200 A=    0.0000 R=    0.0000 C=    0.0000
 XYZ=   -8.1936    4.1325   -7.8908 Q=    0.4100 A=    0.0000 R=    0.0000 C=    0.0000
 XYZ=   -8.6303    3.5022   -6.4491 Q=    0.4100 A=    0.0000 R=    0.0000 C=    0.0000
 XYZ=    8.5815    0.4747   -6.5058 Q=   -0.8200 A=    0.0000 R=    0.0000 C=    0.0000
 XYZ=    9.0487    1.3576   -6.4584 Q=    0.4100 A=    0.0000 R=    0.0000 C=    0.0000
 XYZ=    9.2552   -0.2623   -6.4503 Q=    0.4100 A=    0.0000 R=    0.0000 C=    0.0000
 XYZ=   -9.2724   -6.9048   -0.8387 Q=   -0.8200 A=    0.0000 R=    0.0000 C=    0.0000
 XYZ=   -9.6673   -6.6261   -1.7142 Q=    0.4100 A=    0.0000 R=    0.0000 C=    0.0000
 XYZ=   -9.9388   -6.7523   -0.1089 Q=    0.4100 A=    0.0000 R=    0.0000 C=    0.0000
 XYZ=   11.2108    3.9561   -0.1393 Q=   -0.8200 A=    0.0000 R=    0.0000 C=    0.0000
 XYZ=   10.5581    4.2145    0.5729 Q=    0.4100 A=    0.0000 R=    0.0000 C=    0.0000
 XYZ=   12.0834    4.4160    0.0255 Q=    0.4100 A=    0.0000 R=    0.0000 C=    0.0000
 XYZ=   -2.0034    0.1837  -12.3084 Q=   -0.8200 A=    0.0000 R=    0.0000 C=    0.0000
 XYZ=   -1.5798   -0.4325  -11.6444 Q=    0.4100 A=    0.0000 R=    0.0000 C=    0.0000
 XYZ=   -2.9978    0.1491  -12.2079 Q=    0.4100 A=    0.0000 R=    0.0000 C=    0.0000
 XYZ=   -4.1925   10.9410   -0.9462 Q=   -0.8200 A=    0.0000 R=    0.0000 C=    0.0000
 XYZ=   -4.5842   11.6668   -1.5118 Q=    0.4100 A=    0.0000 R=    0.0000 C=    0.0000
 XYZ=   -4.8764   10.6254   -0.2884 Q=    0.4100 A=    0.0000 R=    0.0000 C=    0.0000
 XYZ=   -2.6277  -11.3581   -2.6929 Q=   -0.8200 A=    0.0000 R=    0.0000 C=    0.0000
 XYZ=   -2.2334  -11.6769   -3.5549 Q=    0.4100 A=    0.0000 R=    0.0000 C=    0.0000
 XYZ=   -3.5000  -10.9037   -2.8733 Q=    0.4100 A=    0.0000 R=    0.0000 C=    0.0000
 XYZ=    0.4703   13.2049   -1.1921 Q=   -0.8200 A=    0.0000 R=    0.0000 C=    0.0000
 XYZ=    0.9772   12.3430   -1.1785 Q=    0.4100 A=    0.0000 R=    0.0000 C=    0.0000
 XYZ=   -0.1976   13.2104   -0.4479 Q=    0.4100 A=    0.0000 R=    0.0000 C=    0.0000
 XYZ=  -10.6788   -4.1176    1.5187 Q=   -0.8200 A=    0.0000 R=    0.0000 C=    0.0000
 XYZ=  -10.1364   -4.0774    2.3579 Q=    0.4100 A=    0.0000 R=    0.0000 C=    0.0000
 XYZ=  -10.7520   -5.0674    1.2144 Q=    0.4100 A=    0.0000 R=    0.0000 C=    0.0000
 XYZ=   -4.2987   10.5090   -5.9757 Q=   -0.8200 A=    0.0000 R=    0.0000 C=    0.0000
 XYZ=   -3.9168    9.8212   -5.3583 Q=    0.4100 A=    0.0000 R=    0.0000 C=    0.0000
 XYZ=   -3.5908   10.8153   -6.6121 Q=    0.4100 A=    0.0000 R=    0.0000 C=    0.0000
 XYZ=   -4.5653  -10.0536    5.1074 Q=   -0.8200 A=    0.0000 R=    0.0000 C=    0.0000
 XYZ=   -4.2761  -10.4216    4.2237 Q=    0.4100 A=    0.0000 R=    0.0000 C=    0.0000
 XYZ=   -4.0486   -9.2210    5.3069 Q=    0.4100 A=    0.0000 R=    0.0000 C=    0.0000
 XYZ=   -3.8587  -10.9366    2.7376 Q=   -0.8200 A=    0.0000 R=    0.0000 C=    0.0000
 XYZ=   -4.1871  -11.7212    2.2118 Q=    0.4100 A=    0.0000 R=    0.0000 C=    0.0000
 XYZ=   -2.8865  -10.7942    2.5518 Q=    0.4100 A=    0.0000 R=    0.0000 C=    0.0000
 XYZ=    7.8842    3.4728   -7.7650 Q=   -0.8200 A=    0.0000 R=    0.0000 C=    0.0000
 XYZ=    8.2137    4.1268   -8.4460 Q=    0.4100 A=    0.0000 R=    0.0000 C=    0.0000
 XYZ=    8.6538    3.1480   -7.2152 Q=    0.4100 A=    0.0000 R=    0.0000 C=    0.0000
 XYZ=   -6.4936    1.9141    8.4655 Q=   -0.8200 A=    0.0000 R=    0.0000 C=    0.0000
 XYZ=   -7.0666    1.4051    7.8231 Q=    0.4100 A=    0.0000 R=    0.0000 C=    0.0000
 XYZ=   -6.2182    1.3125    9.2154 Q=    0.4100 A=    0.0000 R=    0.0000 C=    0.0000
 XYZ=   -3.7817    4.3884    9.6879 Q=   -0.8200 A=    0.0000 R=    0.0000 C=    0.0000
 XYZ=   -2.8845    4.8298    9.7035 Q=    0.4100 A=    0.0000 R=    0.0000 C=    0.0000
 XYZ=   -4.2399    4.5953    8.8234 Q=    0.4100 A=    0.0000 R=    0.0000 C=    0.0000
 XYZ=   10.2083    5.5863    4.3023 Q=   -0.8200 A=    0.0000 R=    0.0000 C=    0.0000
 XYZ=    9.9100    4.6802    4.0021 Q=    0.4100 A=    0.0000 R=    0.0000 C=    0.0000
 XYZ=   10.2228    5.6182    5.3017 Q=    0.4100 A=    0.0000 R=    0.0000 C=    0.0000
 XYZ=    3.3870   -6.9340   -8.3299 Q=   -0.8200 A=    0.0000 R=    0.0000 C=    0.0000
 XYZ=    4.1428   -6.3672   -8.6577 Q=    0.4100 A=    0.0000 R=    0.0000 C=    0.0000
 XYZ=    3.6605   -7.4002   -7.4886 Q=    0.4100 A=    0.0000 R=    0.0000 C=    0.0000
 XYZ=   -5.3968    9.1795    4.0982 Q=   -0.8200 A=    0.0000 R=    0.0000 C=    0.0000
 XYZ=   -5.9695    9.8088    4.6235 Q=    0.4100 A=    0.0000 R=    0.0000 C=    0.0000
 XYZ=   -4.5888    9.6647    3.7636 Q=    0.4100 A=    0.0000 R=    0.0000 C=    0.0000
 XYZ=    4.1202    5.9242    9.9236 Q=   -0.8200 A=    0.0000 R=    0.0000 C=    0.0000
 XYZ=    3.2502    5.4447    9.8093 Q=    0.4100 A=    0.0000 R=    0.0000 C=    0.0000
 XYZ=    4.6712    5.8167    9.0961 Q=    0.4100 A=    0.0000 R=    0.0000 C=    0.0000
 XYZ=   -0.7891  -10.0254   -7.6087 Q=   -0.8200 A=    0.0000 R=    0.0000 C=    0.0000
 XYZ=   -1.1841   -9.1291   -7.4070 Q=    0.4100 A=    0.0000 R=    0.0000 C=    0.0000
 XYZ=   -0.8463  -10.2013   -8.5915 Q=    0.4100 A=    0.0000 R=    0.0000 C=    0.0000
 XYZ=   -0.0235    4.9645   10.6557 Q=   -0.8200 A=    0.0000 R=    0.0000 C=    0.0000
 XYZ=    0.0442    5.6359   11.3937 Q=    0.4100 A=    0.0000 R=    0.0000 C=    0.0000
 XYZ=   -0.7565    5.2303   10.0296 Q=    0.4100 A=    0.0000 R=    0.0000 C=    0.0000
 XYZ=    3.7633   12.6917    1.6703 Q=   -0.8200 A=    0.0000 R=    0.0000 C=    0.0000
 XYZ=    3.0223   12.0202    1.6815 Q=    0.4100 A=    0.0000 R=    0.0000 C=    0.0000
 XYZ=    3.3822   13.6103    1.7750 Q=    0.4100 A=    0.0000 R=    0.0000 C=    0.0000
 XYZ=   -6.4391   -1.9112   -9.6088 Q=   -0.8200 A=    0.0000 R=    0.0000 C=    0.0000
 XYZ=   -7.3108   -1.4299   -9.5165 Q=    0.4100 A=    0.0000 R=    0.0000 C=    0.0000
 XYZ=   -6.5245   -2.6250  -10.3041 Q=    0.4100 A=    0.0000 R=    0.0000 C=    0.0000
 XYZ=    9.1744   -4.4098   -1.8579 Q=   -0.8200 A=    0.0000 R=    0.0000 C=    0.0000
 XYZ=   10.1302   -4.4136   -2.1520 Q=    0.4100 A=    0.0000 R=    0.0000 C=    0.0000
 XYZ=    8.6142   -4.8816   -2.5388 Q=    0.4100 A=    0.0000 R=    0.0000 C=    0.0000
 XYZ=   -1.7551    1.1686   11.1152 Q=   -0.8200 A=    0.0000 R=    0.0000 C=    0.0000
 XYZ=   -2.6662    1.5510   10.9614 Q=    0.4100 A=    0.0000 R=    0.0000 C=    0.0000
 XYZ=   -1.0634    1.8182   10.7996 Q=    0.4100 A=    0.0000 R=    0.0000 C=    0.0000
 XYZ=    8.1839   -5.6488   -3.8054 Q=   -0.8200 A=    0.0000 R=    0.0000 C=    0.0000
 XYZ=    7.5112   -5.5684   -4.5409 Q=    0.4100 A=    0.0000 R=    0.0000 C=    0.0000
 XYZ=    9.0943   -5.4388   -4.1620 Q=    0.4100 A=    0.0000 R=    0.0000 C=    0.0000
 XYZ=    4.9407   -5.5262   -9.0923 Q=   -0.8200 A=    0.0000 R=    0.0000 C=    0.0000
 XYZ=    5.6893   -5.5817   -9.7531 Q=    0.4100 A=    0.0000 R=    0.0000 C=    0.0000
 XYZ=    5.1012   -4.7596   -8.4705 Q=    0.4100 A=    0.0000 R=    0.0000 C=    0.0000
 XYZ=    6.4434    1.8513   -9.3322 Q=   -0.8200 A=    0.0000 R=    0.0000 C=    0.0000
 XYZ=    6.9328    2.5677   -8.8348 Q=    0.4100 A=    0.0000 R=    0.0000 C=    0.0000
 XYZ=    6.8119    0.9573   -9.0772 Q=    0.4100 A=    0.0000 R=    0.0000 C=    0.0000
 XYZ=   11.9231    1.6604    0.0408 Q=   -0.8200 A=    0.0000 R=    0.0000 C=    0.0000
 XYZ=   11.1116    1.0884    0.1608 Q=    0.4100 A=    0.0000 R=    0.0000 C=    0.0000
 XYZ=   11.6437    2.6110   -0.0946 Q=    0.4100 A=    0.0000 R=    0.0000 C=    0.0000
 XYZ=   -4.5565   -7.0729   -9.4419 Q=   -0.8200 A=    0.0000 R=    0.0000 C=    0.0000
 XYZ=   -3.9619   -7.7480   -9.8787 Q=    0.4100 A=    0.0000 R=    0.0000 C=    0.0000
 XYZ=   -4.5356   -7.2022   -8.4505 Q=    0.4100 A=    0.0000 R=    0.0000 C=    0.0000
 XYZ=    0.2316   12.9888    2.2648 Q=   -0.8200 A=    0.0000 R=    0.0000 C=    0.0000
 XYZ=   -0.3636   13.1071    1.4699 Q=    0.4100 A=    0.0000 R=    0.0000 C=    0.0000
 XYZ=    0.9190   12.2904    2.0654 Q=    0.4100 A=    0.0000 R=    0.0000 C=    0.0000
 XYZ=  -11.4029    1.3856    2.5201 Q=   -0.8200 A=    0.0000 R=    0.0000 C=    0.0000
 XYZ=  -11.3593    1.9864    3.3184 Q=    0.4100 A=    0.0000 R=    0.0000 C=    0.0000
 XYZ=  -10.4804    1.2373    2.1638 Q=    0.4100 A=    0.0000 R=    0.0000 C=    0.0000
 XYZ=    2.1262    3.6317  -12.0471 Q=   -0.8200 A=    0.0000 R=    0.0000 C=    0.0000
 XYZ=    1.6673    4.1190  -11.3042 Q=    0.4100 A=    0.0000 R=    0.0000 C=    0.0000
 XYZ=    3.0727    3.9469  -12.1177 Q=    0.4100 A=    0.0000 R=    0.0000 C=    0.0000
 XYZ=    7.1577   -7.6406   -2.2895 Q=   -0.8200 A=    0.0000 R=    0.0000 C=    0.0000
 XYZ=    7.8383   -8.2662   -1.9081 Q=    0.4100 A=    0.0000 R=    0.0000 C=    0.0000
 XYZ=    7.6142   -6.9622   -2.8652 Q=    0.4100 A=    0.0000 R=    0.0000 C=    0.0000
 XYZ=    2.3698   -6.4643    9.5364 Q=   -0.8200 A=    0.0000 R=    0.0000 C=    0.0000
 XYZ=    3.2846   -6.1022    9.3569 Q=    0.4100 A=    0.0000 R=    0.0000 C=    0.0000
 XYZ=    2.1211   -6.2847   10.4882 Q=    0.4100 A=    0.0000 R=    0.0000 C=    0.0000
 XYZ=   11.5741   -1.4401   -0.7248 Q=   -0.8200 A=    0.0000 R=    0.0000 C=    0.0000
 XYZ=   11.7945   -2.2412   -0.1684 Q=    0.4100 A=    0.0000 R=    0.0000 C=    0.0000
 XYZ=   11.0037   -0.8128   -0.1945 Q=    0.4100 A=    0.0000 R=    0.0000 C=    0.0000
 XYZ=    8.0853    6.9983    5.8310 Q=   -0.8200 A=    0.0000 R=    0.0000 C=    0.0000
 XYZ=    8.3070    7.3506    4.9217 Q=    0.4100 A=    0.0000 R=    0.0000 C=    0.0000
 XYZ=    8.4127    7.6389    6.5256 Q=    0.4100 A=    0.0000 R=    0.0000 C=    0.0000
 XYZ=   -1.2621   13.1574    0.4131 Q=   -0.8200 A=    0.0000 R=    0.0000 C=    0.0000
 XYZ=   -1.7952   12.3321    0.5994 Q=    0.4100 A=    0.0000 R=    0.0000 C=    0.0000
 XYZ=   -1.8514   13.8467   -0.0085 Q=    0.4100 A=    0.0000 R=    0.0000 C=    0.0000
 XYZ=    9.5375    2.7398   -6.3658 Q=   -0.8200 A=    0.0000 R=    0.0000 C=    0.0000
 XYZ=    9.6729    3.7072   -6.1513 Q=    0.4100 A=    0.0000 R=    0.0000 C=    0.0000
 XYZ=   10.3177    2.2118   -6.0303 Q=    0.4100 A=    0.0000 R=    0.0000 C=    0.0000
 XYZ=   -0.9234   -0.9748   11.6855 Q=   -0.8200 A=    0.0000 R=    0.0000 C=    0.0000
 XYZ=   -0.8350   -0.9076   12.6793 Q=    0.4100 A=    0.0000 R=    0.0000 C=    0.0000
 XYZ=   -1.0657   -0.0627   11.3010 Q=    0.4100 A=    0.0000 R=    0.0000 C=    0.0000
 XYZ=    5.1180   -2.0279  -11.1806 Q=   -0.8200 A=    0.0000 R=    0.0000 C=    0.0000
 XYZ=    5.2413   -1.7942  -10.2161 Q=    0.4100 A=    0.0000 R=    0.0000 C=    0.0000
 XYZ=    5.8450   -2.6515  -11.4679 Q=    0.4100 A=    0.0000 R=    0.0000 C=    0.0000
 XYZ=   -7.6167   -9.9340    2.9227 Q=   -0.8200 A=    0.0000 R=    0.0000 C=    0.0000
 XYZ=   -7.3664  -10.4207    3.7597 Q=    0.4100 A=    0.0000 R=    0.0000 C=    0.0000
 XYZ=   -6.8009   -9.5148    2.5243 Q=    0.4100 A=    0.0000 R=    0.0000 C=    0.0000
 XYZ=    0.4667    5.8026  -11.9322 Q=   -0.8200 A=    0.0000 R=    0.0000 C=    0.0000
 XYZ=   -0.0907    5.0888  -12.3561 Q=    0.4100 A=    0.0000 R=    0.0000 C=    0.0000
 XYZ=    0.7190    5.5223  -11.0060 Q=    0.4100 A=    0.0000 R=    0.0000 C=    0.0000
 XYZ=   -4.5176    5.2262  -10.3216 Q=   -0.8200 A=    0.0000 R=    0.0000 C=    0.0000
 XYZ=   -5.1448    5.8841  -10.7386 Q=    0.4100 A=    0.0000 R=    0.0000 C=    0.0000
 XYZ=   -4.4562    4.4121  -10.8991 Q=    0.4100 A=    0.0000 R=    0.0000 C=    0.0000
 XYZ=   11.8373    2.7971   -3.5496 Q=   -0.8200 A=    0.0000 R=    0.0000 C=    0.0000
 XYZ=   11.0815    3.0943   -2.9661 Q=    0.4100 A=    0.0000 R=    0.0000 C=    0.0000
 XYZ=   12.4872    2.2641   -3.0077 Q=    0.4100 A=    0.0000 R=    0.0000 C=    0.0000
 XYZ=    1.4721   -3.9900  -11.1236 Q=   -0.8200 A=    0.0000 R=    0.0000 C=    0.0000
 XYZ=    2.1030   -3.2847  -11.4470 Q=    0.4100 A=    0.0000 R=    0.0000 C=    0.0000
 XYZ=    1.9727   -4.8434  -10.9776 Q=    0.4100 A=    0.0000 R=    0.0000 C=    0.0000
 XYZ=   -2.6458   -2.4350   11.4910 Q=   -0.8200 A=    0.0000 R=    0.0000 C=    0.0000
 XYZ=   -1.9036   -1.7751   11.3745 Q=    0.4100 A=    0.0000 R=    0.0000 C=    0.0000
 XYZ=   -3.5249   -1.9693   11.3887 Q=    0.4100 A=    0.0000 R=    0.0000 C=    0.0000
 XYZ=    8.7969    6.5750   -6.5643 Q=   -0.8200 A=    0.0000 R=    0.0000 C=    0.0000
 XYZ=    9.3001    5.9716   -5.9457 Q=    0.4100 A=    0.0000 R=    0.0000 C=    0.0000
 XYZ=    8.7252    6.1450   -7.4643 Q=    0.4100 A=    0.0000 R=    0.0000 C=    0.0000
 XYZ=   -0.5491   -3.3896  -11.9659 Q=   -0.8200 A=    0.0000 R=    0.0000 C=    0.0000
 XYZ=    0.2963   -3.6570  -11.5033 Q=    0.4100 A=    0.0000 R=    0.0000 C=    0.0000
 XYZ=   -0.4142   -3.4296  -12.9560 Q=    0.4100 A=    0.0000 R=    0.0000 C=    0.0000
 XYZ=   -5.9376   10.4548    0.8519 Q=   -0.8200 A=    0.0000 R=    0.0000 C=    0.0000
 XYZ=   -6.4304   10.8310    0.0672 Q=    0.4100 A=    0.0000 R=    0.0000 C=    0.0000
 XYZ=   -6.4965    9.7508    1.2901 Q=    0.4100 A=    0.0000 R=    0.0000 C=    0.0000
 XYZ=  -12.1062   -1.9564   -1.2834 Q=   -0.8200 A=    0.0000 R=    0.0000 C=    0.0000
 XYZ=  -11.5591   -1.3797   -1.8901 Q=    0.4100 A=    0.0000 R=    0.0000 C=    0.0000
 XYZ=  -11.8817   -1.7463   -0.3318 Q=    0.4100 A=    0.0000 R=    0.0000 C=    0.0000
 XYZ=   -4.2293   11.5842    2.0008 Q=   -0.8200 A=    0.0000 R=    0.0000 C=    0.0000
 XYZ=   -4.9041   11.0437    1.4981 Q=    0.4100 A=    0.0000 R=    0.0000 C=    0.0000
 XYZ=   -4.6976   12.2862    2.5374 Q=    0.4100 A=    0.0000 R=    0.0000 C=    0.0000
 XYZ=   -3.7493    2.3200   10.7618 Q=   -0.8200 A=    0.0000 R=    0.0000 C=    0.0000
 XYZ=   -4.0740    2.5081   11.6887 Q=    0.4100 A=    0.0000 R=    0.0000 C=    0.0000
 XYZ=   -3.5389    3.1823   10.3010 Q=    0.4100 A=    0.0000 R=    0.0000 C=    0.0000
 XYZ=    7.4129   11.2212    0.1696 Q=   -0.8200 A=    0.0000 R=    0.0000 C=    0.0000
 XYZ=    6.8201   11.2213   -0.6358 Q=    0.4100 A=    0.0000 R=    0.0000 C=    0.0000
 XYZ=    6.9247   11.6263    0.9427 Q=    0.4100 A=    0.0000 R=    0.0000 C=    0.0000
[...]
    40  H    0.000000   0.000000   0.000000   0.000000   0.000000   0.001469
    41  H    0.000000   0.000000   0.000000   0.000000   0.000000   0.071733
    42  O    0.000000   0.000000   0.000000   0.000000   0.000000  -0.000327
    43  H    0.000000   0.000000   0.000000   0.000000   0.000000   0.001660
    44  H    0.000000   0.000000   0.000000   0.000000   0.000000  -0.000567
    45  O    0.000000   0.000000   0.000000   0.000000   0.000000   0.000000
    46  H    0.000000   0.000000   0.000000   0.000000   0.000000   0.000000
    47  H    0.000000   0.000000   0.000000   0.000000   0.000000   0.000000
    48  O    0.000133  -0.000418  -0.000048   0.000000   0.000002   0.000000
    49  H   -0.001870  -0.000363   0.000008   0.000000   0.000000   0.000000
    50  H   -0.000006   0.000011   0.000000   0.000000   0.000000   0.000000
              31         32         33         34         35         36
     1  C    0.000029  -0.000497  -0.003036   0.000253  -0.000249   0.001581
     2  H    0.000000  -0.000003  -0.000002   0.000000   0.000000  -0.000007
     3  H    0.000000   0.000000  -0.000005   0.000000   0.000000   0.000003
     4  C    0.000115   0.001086   0.003489  -0.000384  -0.000978  -0.022806
     5  H    0.000000   0.000000  -0.000011   0.000000   0.000000  -0.000225
     6  C   -0.000151   0.000311  -0.000104   0.000033   0.001580   0.012584
     7  H    0.000000  -0.000001   0.000004   0.000000  -0.000001  -0.004003
     8  O   -0.000120   0.004022  -0.000039   0.000001  -0.000016   0.003093
     9  O   -0.000004  -0.000324   0.000011   0.000000  -0.000023  -0.002308
    10  H    0.000003   0.000021   0.000000   0.000000   0.000000  -0.001082
    11  H    0.000003   0.000033   0.000000   0.000000   0.000000   0.000147
    12  O    0.003058   0.015831   0.000000   0.000000   0.000000   0.000009
    13  H   -0.000109   0.000266   0.000000   0.000000   0.000000   0.000003
    14  H    0.000006  -0.001368   0.000000   0.000000   0.000000   0.000000
    15  O    0.000000   0.000000  -0.008232   0.000378  -0.000293  -0.000001
    16  H    0.000000   0.000000  -0.000120  -0.000001   0.000002   0.000000
    17  H    0.000000   0.000000   0.003490  -0.000044  -0.000363   0.000000
    18  O    0.000000   0.000000  -0.000200   0.000002  -0.000012   0.000000
    19  H    0.000000   0.000000   0.000006   0.000000   0.000000   0.000000
    20  H    0.000000   0.000000  -0.000039   0.000000  -0.000001   0.000000
    21  O    0.000000  -0.000021  -0.000001   0.000000   0.000000  -0.136358
    22  H    0.000000   0.000000   0.000000   0.000000   0.000000   0.001984
    23  H    0.000000   0.000000   0.000000   0.000000   0.000000   0.015038
    24  O    0.000001   0.000002   0.000011   0.000000  -0.000001   0.000000
    25  H    0.000000   0.000000  -0.000001   0.000000   0.000000   0.000000
    26  H    0.000000   0.000000   0.000000   0.000000   0.000000   0.000000
    27  O    0.000000   0.000000  -0.070002   0.000217   0.002464   0.000004
    28  H    0.000000   0.000000  -0.002515  -0.000089   0.000098   0.000000
    29  H    0.000000   0.000000   0.049408  -0.002999  -0.003985   0.000000
    30  O    0.186510   0.150728   0.000000   0.000000   0.000000  -0.000001
    31  H    0.135511  -0.003877   0.000000   0.000000   0.000000   0.000000
    32  H   -0.003877   0.229090   0.000000   0.000000   0.000000   0.000000
    33  O    0.000000   0.000000   8.717326   0.202134   0.232966  -0.000012
    34  H    0.000000   0.000000   0.202134   0.167555  -0.011164   0.000000
    35  H    0.000000   0.000000   0.232966  -0.011164   0.257566  -0.000007
    36  O    0.000000   0.000000  -0.000012   0.000000  -0.000007   8.943598
    37  H    0.000000   0.000000   0.000004   0.000000  -0.000002   0.189033
    38  H    0.000000   0.000000   0.000001   0.000000   0.000000   0.105276
    39  O    0.000293   0.002555   0.000000   0.000000   0.000000   0.000098
    40  H   -0.000110  -0.000170   0.000000   0.000000   0.000000  -0.000001
    41  H   -0.002216   0.007172   0.000000   0.000000   0.000000  -0.000001
    42  O    0.000018  -0.000252   0.000000   0.000000   0.000000   0.000158
    43  H    0.000005  -0.000297   0.000000   0.000000   0.000000  -0.000010
    44  H   -0.000001  -0.000007   0.000000   0.000000   0.000000   0.000042
    45  O    0.000000   0.000000   0.000001   0.000000   0.000000  -0.013541
    46  H    0.000000   0.000000   0.000000   0.000000   0.000000   0.031594
    47  H    0.000000   0.000000   0.000000   0.000000   0.000000   0.000337
    48  O    0.000000   0.000000  -0.000009   0.000000   0.000004   0.000000
    49  H    0.000000   0.000000  -0.000006   0.000000   0.000000   0.000000
    50  H    0.000000   0.000000  -0.000001   0.000000   0.000000   0.000000
              37         38         39         40         41         42
     1  C    0.006969  -0.000997  -0.000210  -0.000022  -0.000045  -0.000044
     2  H    0.000000   0.000000   0.000008   0.000000  -0.000001   0.000000
     3  H    0.000000   0.000000   0.000000   0.000000   0.000000   0.000000
     4  C    0.012714   0.006962   0.010187   0.000294  -0.000868   0.003612
     5  H   -0.000005  -0.000008   0.000001   0.000000   0.000000   0.000000
     6  C   -0.017262  -0.009271  -0.003333   0.000204   0.000820   0.005519
     7  H    0.011436   0.004346   0.000099   0.000000   0.000000  -0.000027
     8  O    0.000164  -0.000049  -0.006828  -0.000716   0.001847  -0.006346
     9  O    0.007105   0.006504  -0.064292   0.001955   0.001585   0.012997
    10  H   -0.000354  -0.000577  -0.002639   0.000021  -0.000189  -0.002392
    11  H    0.000056   0.000160   0.028482  -0.002368   0.000371  -0.004465
    12  O   -0.000002  -0.000006  -0.013480   0.000169   0.004257  -0.001901
    13  H    0.000000   0.000000   0.001344  -0.000002  -0.000430  -0.000015
    14  H    0.000000   0.000000  -0.000007   0.000001  -0.000085  -0.000129
    15  O    0.000000   0.000000   0.000000   0.000000   0.000000   0.000000
    16  H    0.000000   0.000000   0.000000   0.000000   0.000000   0.000000
    17  H    0.000000   0.000000   0.000000   0.000000   0.000000   0.000000
    18  O    0.000000   0.000000   0.000000   0.000000   0.000000   0.000000
    19  H    0.000000   0.000000   0.000000   0.000000   0.000000   0.000000
    20  H    0.000000   0.000000   0.000000   0.000000   0.000000   0.000000
    21  O    0.000587   0.039815  -0.001003  -0.000086   0.000020  -0.006414
    22  H    0.000015  -0.001873   0.000081   0.000001  -0.000001   0.001120
    23  H   -0.000015   0.006272   0.001643   0.000003  -0.000035   0.000129
    24  O    0.000000   0.000000  -0.000012   0.000001   0.000001   0.000000
    25  H    0.000000   0.000000   0.000000   0.000000   0.000000   0.000000
    26  H    0.000000   0.000000  -0.000006   0.000000   0.000000   0.000000
    27  O   -0.000005   0.000000   0.000000   0.000000   0.000000   0.000000
    28  H    0.000000   0.000000   0.000000   0.000000   0.000000   0.000000
    29  H    0.000000   0.000000   0.000000   0.000000   0.000000   0.000000
    30  O    0.000000  -0.000001  -0.120678   0.001469   0.071733  -0.000327
    31  H    0.000000   0.000000   0.000293  -0.000110  -0.002216   0.000018
    32  H    0.000000   0.000000   0.002555  -0.000170   0.007172  -0.000252
    33  O    0.000004   0.000001   0.000000   0.000000   0.000000   0.000000
    34  H    0.000000   0.000000   0.000000   0.000000   0.000000   0.000000
    35  H   -0.000002   0.000000   0.000000   0.000000   0.000000   0.000000
    36  O    0.189033   0.105276   0.000098  -0.000001  -0.000001   0.000158
    37  H    0.343798   0.000623   0.000024   0.000000   0.000000  -0.000001
    38  H    0.000623   0.235158   0.000034   0.000000   0.000000   0.000096
    39  O    0.000024   0.000034   9.119579   0.210291   0.110872  -0.099957
    40  H    0.000000   0.000000   0.210291   0.188174  -0.004154   0.001976
    41  H    0.000000   0.000000   0.110872  -0.004154   0.225496   0.001220
    42  O   -0.000001   0.000096  -0.099957   0.001976   0.001220   8.951975
    43  H    0.000000  -0.000001   0.057130  -0.001415  -0.000595   0.127473
    44  H   -0.000001  -0.000011   0.001354   0.000145  -0.000158   0.196753
    45  O    0.000609   0.000272   0.000003   0.000000   0.000000   0.000001
    46  H   -0.000787  -0.002793   0.000000   0.000000   0.000000   0.000000
    47  H   -0.000012  -0.000135   0.000000   0.000000   0.000000   0.000000
    48  O    0.000000   0.000000   0.000000   0.000000   0.000000   0.000000
    49  H    0.000000   0.000000   0.000000   0.000000   0.000000   0.000000
    50  H    0.000000   0.000000   0.000000   0.000000   0.000000   0.000000
              43         44         45         46         47         48
     1  C    0.000018  -0.000027  -0.002919   0.000244  -0.000083  -0.000088
     2  H    0.000000   0.000000   0.000000   0.000000   0.000000   0.000000
     3  H    0.000000   0.000000   0.000000   0.000000   0.000000   0.000000
     4  C   -0.000364   0.000889   0.004338  -0.001562  -0.000660   0.000102
     5  H    0.000000   0.000000  -0.000026  -0.000002   0.000000   0.000000
     6  C    0.000042   0.001276  -0.003567   0.001826   0.000685   0.000026
     7  H   -0.000001  -0.000008  -0.000298   0.000069  -0.000037   0.000000
     8  O   -0.000171  -0.001113  -0.000180  -0.000004   0.000002   0.000000
     9  O    0.001632   0.006625   0.000289  -0.000091  -0.000026   0.000000
    10  H    0.000071  -0.000442  -0.000017  -0.000003   0.000001   0.000000
    11  H   -0.000235  -0.000668   0.000001   0.000000   0.000000   0.000000
    12  O    0.000979   0.000747  -0.000003   0.000000   0.000000   0.000000
    13  H   -0.000027  -0.000015   0.000001   0.000000   0.000000   0.000000
    14  H   -0.000025  -0.000045   0.000000   0.000000   0.000000   0.000000
    15  O    0.000000   0.000000   0.000000   0.000000   0.000000  -0.004428
    16  H    0.000000   0.000000   0.000000   0.000000   0.000000  -0.000132
    17  H    0.000000   0.000000   0.000000   0.000000   0.000000  -0.000001
    18  O    0.000000   0.000000   0.000000   0.000000   0.000000  -0.081747
    19  H    0.000000   0.000000   0.000000   0.000000   0.000000  -0.000738
    20  H    0.000000   0.000000   0.000000   0.000000   0.000000  -0.000851
    21  O    0.000328   0.002325  -0.002103  -0.000090   0.000205   0.000000
    22  H   -0.000100   0.001053  -0.000013  -0.000027  -0.000019   0.000000
    23  H   -0.000149  -0.000637   0.000069  -0.000023   0.000000   0.000000
    24  O    0.000000   0.000000   0.000000   0.000000   0.000000  -0.008198
    25  H    0.000000   0.000000   0.000000   0.000000   0.000000   0.000133
    26  H    0.000000   0.000000   0.000000   0.000000   0.000000  -0.000418
    27  O    0.000000   0.000000   0.000000   0.000000   0.000000  -0.000048
    28  H    0.000000   0.000000   0.000000   0.000000   0.000000   0.000000
    29  H    0.000000   0.000000   0.000000   0.000000   0.000000   0.000002
    30  O    0.001660  -0.000567   0.000000   0.000000   0.000000   0.000000
    31  H    0.000005  -0.000001   0.000000   0.000000   0.000000   0.000000
    32  H   -0.000297  -0.000007   0.000000   0.000000   0.000000   0.000000
    33  O    0.000000   0.000000   0.000001   0.000000   0.000000  -0.000009
    34  H    0.000000   0.000000   0.000000   0.000000   0.000000   0.000000
    35  H    0.000000   0.000000   0.000000   0.000000   0.000000   0.000004
    36  O   -0.000010   0.000042  -0.013541   0.031594   0.000337   0.000000
    37  H    0.000000  -0.000001   0.000609  -0.000787  -0.000012   0.000000
    38  H   -0.000001  -0.000011   0.000272  -0.002793  -0.000135   0.000000
    39  O    0.057130   0.001354   0.000003   0.000000   0.000000   0.000000
    40  H   -0.001415   0.000145   0.000000   0.000000   0.000000   0.000000
    41  H   -0.000595  -0.000158   0.000000   0.000000   0.000000   0.000000
    42  O    0.127473   0.196753   0.000001   0.000000   0.000000   0.000000
    43  H    0.188146  -0.005632   0.000000   0.000000   0.000000   0.000000
    44  H   -0.005632   0.260208   0.000000   0.000000   0.000000   0.000000
    45  O    0.000000   0.000000   8.832785   0.163479   0.211042   0.000000
    46  H    0.000000   0.000000   0.163479   0.227759  -0.006249   0.000000
    47  H    0.000000   0.000000   0.211042  -0.006249   0.174795   0.000000
    48  O    0.000000   0.000000   0.000000   0.000000   0.000000   8.888524
    49  H    0.000000   0.000000   0.000000   0.000000   0.000000   0.162795
    50  H    0.000000   0.000000   0.000000   0.000000   0.000000   0.228115
              49         50
     1  C   -0.000130  -0.000005
     2  H    0.000000   0.000000
     3  H    0.000000   0.000000
     4  C    0.000108   0.000002
     5  H    0.000000   0.000000
     6  C   -0.000016  -0.000001
     7  H    0.000000   0.000000
     8  O    0.000000   0.000000
     9  O    0.000000   0.000000
    10  H    0.000000   0.000000
    11  H    0.000000   0.000000
    12  O    0.000000   0.000000
    13  H    0.000000   0.000000
    14  H    0.000000   0.000000
    15  O   -0.000131  -0.000200
    16  H    0.000035   0.000006
    17  H   -0.000014  -0.000001
    18  O    0.031581   0.002735
    19  H   -0.002290  -0.000205
    20  H    0.000281  -0.000123
    21  O    0.000000   0.000000
    22  H    0.000000   0.000000
    23  H    0.000000   0.000000
    24  O    0.000708   0.000457
    25  H   -0.001870  -0.000006
    26  H   -0.000363   0.000011
    27  O    0.000008   0.000000
    28  H    0.000000   0.000000
    29  H    0.000000   0.000000
    30  O    0.000000   0.000000
    31  H    0.000000   0.000000
    32  H    0.000000   0.000000
    33  O   -0.000006  -0.000001
    34  H    0.000000   0.000000
    35  H    0.000000   0.000000
    36  O    0.000000   0.000000
    37  H    0.000000   0.000000
    38  H    0.000000   0.000000
    39  O    0.000000   0.000000
    40  H    0.000000   0.000000
    41  H    0.000000   0.000000
    42  O    0.000000   0.000000
    43  H    0.000000   0.000000
    44  H    0.000000   0.000000
    45  O    0.000000   0.000000
    46  H    0.000000   0.000000
    47  H    0.000000   0.000000
    48  O    0.162795   0.228115
    49  H    0.209646  -0.007260
    50  H   -0.007260   0.195852
 Mulliken charges:
               1
     1  C   -0.419122
     2  H    0.260235
     3  H    0.247647
     4  C   -0.183621
     5  H    0.241645
     6  C    0.122234
     7  H    0.146752
     8  O   -0.380082
     9  O   -1.187578
    10  H    0.539995
    11  H    0.601930
    12  O   -1.144431
    13  H    0.542875
    14  H    0.673676
    15  O   -1.135944
    16  H    0.567154
    17  H    0.607550
    18  O   -1.346955
    19  H    0.631099
    20  H    0.671514
    21  O   -1.230469
    22  H    0.651339
    23  H    0.604624
    24  O   -1.092132
    25  H    0.614827
    26  H    0.470303
    27  O   -1.287494
    28  H    0.684491
    29  H    0.576104
    30  O   -1.264065
    31  H    0.681038
    32  H    0.595702
    33  O   -1.124514
    34  H    0.644108
    35  H    0.522412
    36  O   -1.124218
    37  H    0.445306
    38  H    0.610203
    39  O   -1.231631
    40  H    0.604342
    41  H    0.583385
    42  O   -1.180776
    43  H    0.631537
    44  H    0.537918
    45  O   -1.190223
    46  H    0.586657
    47  H    0.620154
    48  O   -1.183043
    49  H    0.606918
    50  H    0.580623
 Sum of Mulliken charges =   0.00000
 Mulliken charges with hydrogens summed into heavy atoms:
               1
     1  C    0.088761
     4  C    0.058023
     6  C    0.268986
     8  O   -0.380082
     9  O   -0.045652
    12  O    0.072121
    15  O    0.038760
    18  O   -0.044343
    21  O    0.025495
    24  O   -0.007001
    27  O   -0.026899
    30  O    0.012674
    33  O    0.042006
    36  O   -0.068709
    39  O   -0.043904
    42  O   -0.011322
    45  O    0.016587
    48  O    0.004498
 Electronic spatial extent (au):  <R**2>=          12291.6742
 Charge=              0.0000 electrons
 Dipole moment (field-independent basis, Debye):
    X=             -8.9172    Y=              4.9189    Z=              7.5665  Tot=             12.6872
 Quadrupole moment (field-independent basis, Debye-Ang):
   XX=           -117.4026   YY=           -168.2814   ZZ=           -127.3297
   XY=            -48.8475   XZ=             15.3721   YZ=             -9.9785
 Traceless Quadrupole moment (field-independent basis, Debye-Ang):
   XX=             20.2686   YY=            -30.6101   ZZ=             10.3415
   XY=            -48.8475   XZ=             15.3721   YZ=             -9.9785
 Octapole moment (field-independent basis, Debye-Ang**2):
  XXX=           -460.0870  YYY=            -36.0278  ZZZ=             16.8494  XYY=           -199.2420
  XXY=             97.5545  XXZ=            234.0430  XZZ=            -17.8975  YZZ=              5.2693
  YYZ=            -43.4569  XYZ=             -4.7531
 Hexadecapole moment (field-independent basis, Debye-Ang**3):
 XXXX=          -5632.0099 YYYY=          -5279.7021 ZZZZ=          -1547.3178 XXXY=            528.1477
 XXXZ=            519.7005 YYYX=          -1524.8840 YYYZ=           -332.3718 ZZZX=             14.0652
 ZZZY=            -25.3296 XXYY=          -3330.0911 XXZZ=          -1886.9423 YYZZ=          -1102.1734
 XXYZ=           -308.4766 YYXZ=            -10.7630 ZZXY=           -224.3357
 N-N= 1.110728940523D+03 E-N=-6.186485152298D+03  KE= 1.249705812572D+03
 Leave Link  601 at Fri Sep 14 20:34:46 2018, MaxMem=    33554432 cpu:         9.3
 (Enter /usr/local/pacerepov1/gaussian/G09D01LINDA/g09/l9999.exe)

 Test job not archived.
 1\1\GINC-IW-H31-27\SP\RLC-wPBE TD-FC\6-31+G(d)\C3H32O15\ROOT\14-Sep-20
 18\0\\#p td=(nstates=15)/6-31+g(d) lc-wpbe charge\\Acroleina in Water\
 \0,1\C,0,0.485154,0.480443,-1.430142\H,0,1.461403,0.187773,-1.055732\H
 ,0,0.429244,0.878853,-2.437062\C,0,-0.605127,0.346563,-0.658432\H,0,-1
 .591686,0.632893,-1.012412\C,0,-0.508516,-0.199107,0.712798\H,0,-1.458
 487,-0.272107,1.272438\O,0,0.544883,-0.561317,1.236519\O,0,-0.494776,0
 .059698,3.220094\H,0,-0.211226,-0.416322,2.387624\H,0,0.256954,0.05426
 8,3.879584\O,0,2.073354,-3.210042,1.287514\H,0,1.284214,-2.715342,0.92
 3384\H,0,1.762014,-4.041002,1.748534\O,0,1.247834,4.670718,-1.753746\H
 ,0,1.453164,5.350448,-2.457876\H,0,0.268014,4.470757,-1.759196\O,0,3.4
 69394,4.609118,-1.269986\H,0,3.926414,5.233418,-1.903526\H,0,2.479654,
 4.667017,-1.400846\O,0,-2.376506,-1.065592,3.780424\H,0,-2.099166,-2.0
 21402,3.878074\H,0,-1.584466,-0.513762,3.519324\O,0,4.445964,2.605918,
 -0.358456\H,0,4.074074,3.290728,-0.985196\H,0,3.800644,2.454018,0.3902
 14\O,0,-1.308006,4.623787,-1.929156\H,0,-2.233226,4.378998,-2.219086\H
 ,0,-1.317696,4.875718,-0.961456\O,0,3.400144,-2.348282,2.871794\H,0,4.
 250524,-1.977102,2.498764\H,0,2.720674,-2.423082,2.141894\O,0,-1.36824
 6,5.355698,0.470874\H,0,-2.364946,5.423048,0.517034\H,0,-1.059966,4.58
 6048,1.030014\O,0,-3.561606,0.113198,2.248864\H,0,-2.945226,0.732538,1
 .762524\H,0,-3.035886,-0.442062,2.893354\O,0,1.864934,-0.933522,4.0631
 24\H,0,2.375874,-0.237702,4.567924\H,0,2.491794,-1.448732,3.478634\O,0
 ,0.668494,-2.562222,5.166314\H,0,1.302014,-1.931242,4.718444\H,0,-0.15
 0686,-2.668103,4.602534\O,0,-4.968356,-1.810182,0.659544\H,0,-4.581566
 ,-1.062492,1.199354\H,0,-4.616766,-2.682752,0.998814\O,0,4.099004,5.72
 0057,0.792414\H,0,3.922644,5.081238,0.043514\H,0,4.168154,6.649038,0.4
 28734\\Version=EM64L-G09RevD.01\State=1-A\HF=-1759.2924664\RMSD=8.443e
 -09\PG=C01 [X(C3H32O15)]\\@


 IF AT FIRST YOU DON'T SUCCEED, TRY, TRY AGAIN.
 THEN GIVE UP;
 THERE'S NO USE BEING A DAMN FOOL ABOUT IT.

                                 -- W. C. FIELDS
 Job cpu time:       0 days  5 hours 36 minutes 20.4 seconds.
 File lengths (MBytes):  RWF=    792 Int=      0 D2E=      0 Chk=     96 Scr=      2
 Normal termination of Gaussian 09 at Fri Sep 14 20:34:50 2018.
