 Entering Gaussian System, Link 0=g09
 Input=Acroleina_water_15_10c.gjf
 Output=Acroleina_water_15_10c.log
 Initial command:
 /usr/local/pacerepov1/gaussian/G09D01LINDA/g09/l1.exe /nv/hp18/holiveira7/scratch/22411806/Gau-48461.inp -scrdir=/nv/hp18/holiveira7/scratch/22411806/
 Entering Link 1 = /usr/local/pacerepov1/gaussian/G09D01LINDA/g09/l1.exe PID=     48462.
  
 Copyright (c) 1988,1990,1992,1993,1995,1998,2003,2009,2013,
            Gaussian, Inc.  All Rights Reserved.
  
 This is part of the Gaussian(R) 09 program.  It is based on
 the Gaussian(R) 03 system (copyright 2003, Gaussian, Inc.),
 the Gaussian(R) 98 system (copyright 1998, Gaussian, Inc.),
 the Gaussian(R) 94 system (copyright 1995, Gaussian, Inc.),
 the Gaussian 92(TM) system (copyright 1992, Gaussian, Inc.),
 the Gaussian 90(TM) system (copyright 1990, Gaussian, Inc.),
 the Gaussian 88(TM) system (copyright 1988, Gaussian, Inc.),
 the Gaussian 86(TM) system (copyright 1986, Carnegie Mellon
 University), and the Gaussian 82(TM) system (copyright 1983,
 Carnegie Mellon University). Gaussian is a federally registered
 trademark of Gaussian, Inc.
  
 This software contains proprietary and confidential information,
 including trade secrets, belonging to Gaussian, Inc.
  
 This software is provided under written license and may be
 used, copied, transmitted, or stored only in accord with that
 written license.
  
 The following legend is applicable only to US Government
 contracts under FAR:
  
                    RESTRICTED RIGHTS LEGEND
  
 Use, reproduction and disclosure by the US Government is
 subject to restrictions as set forth in subparagraphs (a)
 and (c) of the Commercial Computer Software - Restricted
 Rights clause in FAR 52.227-19.
  
 Gaussian, Inc.
 340 Quinnipiac St., Bldg. 40, Wallingford CT 06492
  
  
 ---------------------------------------------------------------
 Warning -- This program may not be used in any manner that
 competes with the business of Gaussian, Inc. or will provide
 assistance to any competitor of Gaussian, Inc.  The licensee
 of this program is prohibited from giving any competitor of
 Gaussian, Inc. access to this program.  By using this program,
 the user acknowledges that Gaussian, Inc. is engaged in the
 business of creating and licensing software in the field of
 computational chemistry and represents and warrants to the
 licensee that it is not a competitor of Gaussian, Inc. and that
 it will not use this program in any manner prohibited above.
 ---------------------------------------------------------------
  

 Cite this work as:
 Gaussian 09, Revision D.01,
 M. J. Frisch, G. W. Trucks, H. B. Schlegel, G. E. Scuseria, 
 M. A. Robb, J. R. Cheeseman, G. Scalmani, V. Barone, B. Mennucci, 
 G. A. Petersson, H. Nakatsuji, M. Caricato, X. Li, H. P. Hratchian, 
 A. F. Izmaylov, J. Bloino, G. Zheng, J. L. Sonnenberg, M. Hada, 
 M. Ehara, K. Toyota, R. Fukuda, J. Hasegawa, M. Ishida, T. Nakajima, 
 Y. Honda, O. Kitao, H. Nakai, T. Vreven, J. A. Montgomery, Jr., 
 J. E. Peralta, F. Ogliaro, M. Bearpark, J. J. Heyd, E. Brothers, 
 K. N. Kudin, V. N. Staroverov, T. Keith, R. Kobayashi, J. Normand, 
 K. Raghavachari, A. Rendell, J. C. Burant, S. S. Iyengar, J. Tomasi, 
 M. Cossi, N. Rega, J. M. Millam, M. Klene, J. E. Knox, J. B. Cross, 
 V. Bakken, C. Adamo, J. Jaramillo, R. Gomperts, R. E. Stratmann, 
 O. Yazyev, A. J. Austin, R. Cammi, C. Pomelli, J. W. Ochterski, 
 R. L. Martin, K. Morokuma, V. G. Zakrzewski, G. A. Voth, 
 P. Salvador, J. J. Dannenberg, S. Dapprich, A. D. Daniels, 
 O. Farkas, J. B. Foresman, J. V. Ortiz, J. Cioslowski, 
 and D. J. Fox, Gaussian, Inc., Wallingford CT, 2013.
 
 ******************************************
 Gaussian 09:  EM64L-G09RevD.01 24-Apr-2013
                14-Sep-2018 
 ******************************************
 %chk=Acrolina_Din_10.chk
 %nprocshared=10
 Will use up to   10 processors via shared memory.
 -------------------------------------------
 #p td=(nstates=15)/6-31+g(d) lc-wpbe charge
 -------------------------------------------
 1/18=10,28=-2,38=1,125=101/1;
 2/12=2,17=6,18=5,40=1/2;
 3/5=1,6=6,7=11,11=9,16=1,25=1,30=1,74=-41/1,2,8,3;
 4//1;
 5/5=2,38=5/2;
 8/6=1,10=2,108=15/1;
 9/41=15,42=1,70=2/14;
 6/7=2,8=2,9=2,10=2/1;
 99/5=1,9=1/99;
 Leave Link    1 at Fri Sep 14 16:25:23 2018, MaxMem=           0 cpu:         4.6
 (Enter /usr/local/pacerepov1/gaussian/G09D01LINDA/g09/l101.exe)
 ------------------
 Acroleina in Water
 ------------------
 Symbolic Z-matrix:
 Charge =  0 Multiplicity = 1
 C                     0.48515   0.48044  -1.43014 
 H                     1.4614    0.18777  -1.05573 
 H                     0.42924   0.87885  -2.43706 
 C                    -0.60513   0.34656  -0.65843 
 H                    -1.59169   0.63289  -1.01241 
 C                    -0.50852  -0.19911   0.7128 
 H                    -1.45849  -0.27211   1.27244 
 O                     0.54488  -0.56132   1.23652 
 O                     0.31443  -1.37001   2.76423 
 H                     0.46044  -0.64033   2.0962 
 H                     0.64376  -1.07229   3.6603 
 O                     3.4558    1.35223   1.06801 
 H                     3.20413   2.08009   0.43007 
 H                     2.64176   1.04474   1.56076 
 O                     1.28541  -3.42156   2.29123 
 H                     0.81041  -2.54174   2.30999 
 H                     0.71064  -4.11976   2.71803 
 O                     0.5731    4.33253  -0.81118 
 H                     1.01594   4.96692  -1.4448 
 H                    -0.41915   4.44349  -0.86759 
 O                     2.89057   3.15627  -0.34336 
 H                     3.49654   3.50249  -1.05955 
 H                     1.94955   3.43057  -0.54162 
 O                    -1.88849   4.8131    1.23488 
 H                    -2.72593   4.32844   1.48762 
 H                    -1.13132   4.48794   1.80147 
 O                    -1.92175   4.59443  -1.02562 
 H                    -2.71021   3.99371  -1.15798 
 H                    -1.82271   4.80494  -0.05304 
 O                    -2.18844  -1.88529   3.36739 
 H                    -1.95938  -2.4073    4.18904 
 H                    -1.34919  -1.65078   2.87678 
 O                    -3.85165   3.26149  -1.30342 
 H                    -4.49562   3.86669  -0.83537 
 H                    -4.28564   2.37551  -1.46702 
 O                     2.51258  -5.41519   1.15714 
 H                     1.86724  -4.69164   1.40224 
 H                     3.02549  -5.69343   1.96927 
 O                     1.41915  -1.02387   4.86582 
 H                     2.05012  -0.51664   5.45285 
 H                     1.93013  -1.69524   4.329 
 O                     2.81476  -2.57584   3.80443 
 H                     3.60657  -2.23588   3.29697 
 H                     2.20986  -3.07431   3.18341 
 O                     5.681     1.01567   0.38655 
 H                     5.72975   1.22234  -0.59067 
 H                     4.7261    1.03106   0.6832 
 O                    -5.32889   1.57329  -1.76417 
 H                    -5.65852   0.65022  -1.56578 
 H                    -5.84941   1.9562   -2.52735 
 
 NAtoms=     50 NQM=       50 NQMF=       0 NMMI=      0 NMMIF=      0
                NMic=       0 NMicF=      0.
                    Isotopes and Nuclear Properties:
 (Nuclear quadrupole moments (NQMom) in fm**2, nuclear magnetic moments (NMagM)
  in nuclear magnetons)

  Atom         1           2           3           4           5           6           7           8           9          10
 IAtWgt=          12           1           1          12           1          12           1          16          16           1
 AtmWgt=  12.0000000   1.0078250   1.0078250  12.0000000   1.0078250  12.0000000   1.0078250  15.9949146  15.9949146   1.0078250
 NucSpn=           0           1           1           0           1           0           1           0           0           1
 AtZEff=   0.0000000   0.0000000   0.0000000   0.0000000   0.0000000   0.0000000   0.0000000   0.0000000   0.0000000   0.0000000
 NQMom=    0.0000000   0.0000000   0.0000000   0.0000000   0.0000000   0.0000000   0.0000000   0.0000000   0.0000000   0.0000000
 NMagM=    0.0000000   2.7928460   2.7928460   0.0000000   2.7928460   0.0000000   2.7928460   0.0000000   0.0000000   2.7928460
 AtZNuc=   6.0000000   1.0000000   1.0000000   6.0000000   1.0000000   6.0000000   1.0000000   8.0000000   8.0000000   1.0000000

  Atom        11          12          13          14          15          16          17          18          19          20
 IAtWgt=           1          16           1           1          16           1           1          16           1           1
 AtmWgt=   1.0078250  15.9949146   1.0078250   1.0078250  15.9949146   1.0078250   1.0078250  15.9949146   1.0078250   1.0078250
 NucSpn=           1           0           1           1           0           1           1           0           1           1
 AtZEff=   0.0000000   0.0000000   0.0000000   0.0000000   0.0000000   0.0000000   0.0000000   0.0000000   0.0000000   0.0000000
 NQMom=    0.0000000   0.0000000   0.0000000   0.0000000   0.0000000   0.0000000   0.0000000   0.0000000   0.0000000   0.0000000
 NMagM=    2.7928460   0.0000000   2.7928460   2.7928460   0.0000000   2.7928460   2.7928460   0.0000000   2.7928460   2.7928460
 AtZNuc=   1.0000000   8.0000000   1.0000000   1.0000000   8.0000000   1.0000000   1.0000000   8.0000000   1.0000000   1.0000000

  Atom        21          22          23          24          25          26          27          28          29          30
 IAtWgt=          16           1           1          16           1           1          16           1           1          16
 AtmWgt=  15.9949146   1.0078250   1.0078250  15.9949146   1.0078250   1.0078250  15.9949146   1.0078250   1.0078250  15.9949146
 NucSpn=           0           1           1           0           1           1           0           1           1           0
 AtZEff=   0.0000000   0.0000000   0.0000000   0.0000000   0.0000000   0.0000000   0.0000000   0.0000000   0.0000000   0.0000000
 NQMom=    0.0000000   0.0000000   0.0000000   0.0000000   0.0000000   0.0000000   0.0000000   0.0000000   0.0000000   0.0000000
 NMagM=    0.0000000   2.7928460   2.7928460   0.0000000   2.7928460   2.7928460   0.0000000   2.7928460   2.7928460   0.0000000
 AtZNuc=   8.0000000   1.0000000   1.0000000   8.0000000   1.0000000   1.0000000   8.0000000   1.0000000   1.0000000   8.0000000

  Atom        31          32          33          34          35          36          37          38          39          40
 IAtWgt=           1           1          16           1           1          16           1           1          16           1
 AtmWgt=   1.0078250   1.0078250  15.9949146   1.0078250   1.0078250  15.9949146   1.0078250   1.0078250  15.9949146   1.0078250
 NucSpn=           1           1           0           1           1           0           1           1           0           1
 AtZEff=   0.0000000   0.0000000   0.0000000   0.0000000   0.0000000   0.0000000   0.0000000   0.0000000   0.0000000   0.0000000
 NQMom=    0.0000000   0.0000000   0.0000000   0.0000000   0.0000000   0.0000000   0.0000000   0.0000000   0.0000000   0.0000000
 NMagM=    2.7928460   2.7928460   0.0000000   2.7928460   2.7928460   0.0000000   2.7928460   2.7928460   0.0000000   2.7928460
 AtZNuc=   1.0000000   1.0000000   8.0000000   1.0000000   1.0000000   8.0000000   1.0000000   1.0000000   8.0000000   1.0000000

  Atom        41          42          43          44          45          46          47          48          49          50
 IAtWgt=           1          16           1           1          16           1           1          16           1           1
 AtmWgt=   1.0078250  15.9949146   1.0078250   1.0078250  15.9949146   1.0078250   1.0078250  15.9949146   1.0078250   1.0078250
 NucSpn=           1           0           1           1           0           1           1           0           1           1
 AtZEff=   0.0000000   0.0000000   0.0000000   0.0000000   0.0000000   0.0000000   0.0000000   0.0000000   0.0000000   0.0000000
 NQMom=    0.0000000   0.0000000   0.0000000   0.0000000   0.0000000   0.0000000   0.0000000   0.0000000   0.0000000   0.0000000
 NMagM=    2.7928460   0.0000000   2.7928460   2.7928460   0.0000000   2.7928460   2.7928460   0.0000000   2.7928460   2.7928460
 AtZNuc=   1.0000000   8.0000000   1.0000000   1.0000000   8.0000000   1.0000000   1.0000000   8.0000000   1.0000000   1.0000000
 Background charge distribution read from input stream:
 Point Charges:
 XYZ=   -3.8498    3.8139    1.7889 Q=   -0.8200 A=    0.0000 R=    0.0000 C=    0.0000
 XYZ=   -4.3791    4.2807    1.0804 Q=    0.4100 A=    0.0000 R=    0.0000 C=    0.0000
 XYZ=   -4.1320    4.1462    2.6889 Q=    0.4100 A=    0.0000 R=    0.0000 C=    0.0000
 XYZ=    3.8420    4.5455    1.2746 Q=   -0.8200 A=    0.0000 R=    0.0000 C=    0.0000
 XYZ=    3.4172    3.8232    0.7288 Q=    0.4100 A=    0.0000 R=    0.0000 C=    0.0000
 XYZ=    4.1628    5.2749    0.6703 Q=    0.4100 A=    0.0000 R=    0.0000 C=    0.0000
 XYZ=   -1.1363    6.9988    0.9589 Q=   -0.8200 A=    0.0000 R=    0.0000 C=    0.0000
 XYZ=   -1.7508    7.7065    1.3075 Q=    0.4100 A=    0.0000 R=    0.0000 C=    0.0000
 XYZ=   -1.5455    6.0987    1.1087 Q=    0.4100 A=    0.0000 R=    0.0000 C=    0.0000
 XYZ=   -1.5346    6.2886   -2.5921 Q=   -0.8200 A=    0.0000 R=    0.0000 C=    0.0000
 XYZ=   -1.6152    5.5409   -1.9330 Q=    0.4100 A=    0.0000 R=    0.0000 C=    0.0000
 XYZ=   -1.1525    7.0935   -2.1380 Q=    0.4100 A=    0.0000 R=    0.0000 C=    0.0000
 XYZ=   -4.1715    4.2634   -3.5463 Q=   -0.8200 A=    0.0000 R=    0.0000 C=    0.0000
 XYZ=   -4.1122    3.8465   -2.6392 Q=    0.4100 A=    0.0000 R=    0.0000 C=    0.0000
 XYZ=   -4.5423    3.5987   -4.1950 Q=    0.4100 A=    0.0000 R=    0.0000 C=    0.0000
 XYZ=   -5.5791    2.0495    1.3051 Q=   -0.8200 A=    0.0000 R=    0.0000 C=    0.0000
 XYZ=   -4.7386    2.3726    1.7402 Q=    0.4100 A=    0.0000 R=    0.0000 C=    0.0000
 XYZ=   -5.4367    1.9765    0.3180 Q=    0.4100 A=    0.0000 R=    0.0000 C=    0.0000
 XYZ=   -2.4247    2.1590   -5.7340 Q=   -0.8200 A=    0.0000 R=    0.0000 C=    0.0000
 XYZ=   -1.9883    2.9046   -5.2303 Q=    0.4100 A=    0.0000 R=    0.0000 C=    0.0000
 XYZ=   -2.4763    2.3973   -6.7038 Q=    0.4100 A=    0.0000 R=    0.0000 C=    0.0000
 XYZ=   -1.7068    4.0592   -4.4347 Q=   -0.8200 A=    0.0000 R=    0.0000 C=    0.0000
 XYZ=   -0.9057    4.3317   -3.9017 Q=    0.4100 A=    0.0000 R=    0.0000 C=    0.0000
 XYZ=   -2.5357    4.3888   -3.9827 Q=    0.4100 A=    0.0000 R=    0.0000 C=    0.0000
 XYZ=    2.2937   -6.6802   -1.0389 Q=   -0.8200 A=    0.0000 R=    0.0000 C=    0.0000
 XYZ=    2.3403   -6.0446   -0.2682 Q=    0.4100 A=    0.0000 R=    0.0000 C=    0.0000
 XYZ=    3.1997   -6.7691   -1.4528 Q=    0.4100 A=    0.0000 R=    0.0000 C=    0.0000
 XYZ=   -4.1869    0.7060   -5.4465 Q=   -0.8200 A=    0.0000 R=    0.0000 C=    0.0000
 XYZ=   -3.8551   -0.2370   -5.4753 Q=    0.4100 A=    0.0000 R=    0.0000 C=    0.0000
 XYZ=   -3.4135    1.3341   -5.5322 Q=    0.4100 A=    0.0000 R=    0.0000 C=    0.0000
 XYZ=   -3.1063   -5.6771    1.0193 Q=   -0.8200 A=    0.0000 R=    0.0000 C=    0.0000
 XYZ=   -2.2398   -5.8236    0.5420 Q=    0.4100 A=    0.0000 R=    0.0000 C=    0.0000
 XYZ=   -3.8654   -5.9050    0.4095 Q=    0.4100 A=    0.0000 R=    0.0000 C=    0.0000
 XYZ=   -4.1817   -1.9830    2.3086 Q=   -0.8200 A=    0.0000 R=    0.0000 C=    0.0000
 XYZ=   -3.2726   -1.9505    2.7240 Q=    0.4100 A=    0.0000 R=    0.0000 C=    0.0000
 XYZ=   -4.5669   -2.8991    2.4210 Q=    0.4100 A=    0.0000 R=    0.0000 C=    0.0000
 XYZ=    4.7386   -5.3346    0.0185 Q=   -0.8200 A=    0.0000 R=    0.0000 C=    0.0000
 XYZ=    3.8128   -5.2334    0.3829 Q=    0.4100 A=    0.0000 R=    0.0000 C=    0.0000
 XYZ=    4.7302   -5.9922   -0.7349 Q=    0.4100 A=    0.0000 R=    0.0000 C=    0.0000
 XYZ=    0.0853   -5.3301    3.0674 Q=   -0.8200 A=    0.0000 R=    0.0000 C=    0.0000
 XYZ=   -0.1674   -6.0332    2.4027 Q=    0.4100 A=    0.0000 R=    0.0000 C=    0.0000
 XYZ=    0.8302   -5.6678    3.6428 Q=    0.4100 A=    0.0000 R=    0.0000 C=    0.0000
 XYZ=    0.2873   -2.5224    6.0933 Q=   -0.8200 A=    0.0000 R=    0.0000 C=    0.0000
 XYZ=    0.6870   -1.8495    5.4708 Q=    0.4100 A=    0.0000 R=    0.0000 C=    0.0000
 XYZ=   -0.5167   -2.9357    5.6658 Q=    0.4100 A=    0.0000 R=    0.0000 C=    0.0000
 XYZ=   -6.3744   -0.6529   -1.2187 Q=   -0.8200 A=    0.0000 R=    0.0000 C=    0.0000
 XYZ=   -5.9210   -1.3081   -1.8230 Q=    0.4100 A=    0.0000 R=    0.0000 C=    0.0000
 XYZ=   -6.4372   -1.0373   -0.2976 Q=    0.4100 A=    0.0000 R=    0.0000 C=    0.0000
 XYZ=   -4.8596   -4.8220   -4.7222 Q=   -0.8200 A=    0.0000 R=    0.0000 C=    0.0000
 XYZ=   -4.0878   -4.2527   -4.4390 Q=    0.4100 A=    0.0000 R=    0.0000 C=    0.0000
 XYZ=   -5.3868   -4.3434   -5.4244 Q=    0.4100 A=    0.0000 R=    0.0000 C=    0.0000
 XYZ=    4.8780   -1.8127    3.0602 Q=   -0.8200 A=    0.0000 R=    0.0000 C=    0.0000
 XYZ=    5.2257   -1.0136    3.5507 Q=    0.4100 A=    0.0000 R=    0.0000 C=    0.0000
 XYZ=    5.5274   -2.0739    2.3460 Q=    0.4100 A=    0.0000 R=    0.0000 C=    0.0000
 XYZ=    1.8733    5.7080   -2.1669 Q=   -0.8200 A=    0.0000 R=    0.0000 C=    0.0000
 XYZ=    2.8420    5.5142   -2.3223 Q=    0.4100 A=    0.0000 R=    0.0000 C=    0.0000
 XYZ=    1.4205    5.8676   -3.0441 Q=    0.4100 A=    0.0000 R=    0.0000 C=    0.0000
 XYZ=   -0.5780   -6.9705    1.5206 Q=   -0.8200 A=    0.0000 R=    0.0000 C=    0.0000
 XYZ=   -0.2281   -6.8090    0.5977 Q=    0.4100 A=    0.0000 R=    0.0000 C=    0.0000
 XYZ=   -1.3231   -7.6363    1.4827 Q=    0.4100 A=    0.0000 R=    0.0000 C=    0.0000
 XYZ=    0.0603   -7.0811   -0.7826 Q=   -0.8200 A=    0.0000 R=    0.0000 C=    0.0000
 XYZ=    1.0227   -6.8710   -0.9545 Q=    0.4100 A=    0.0000 R=    0.0000 C=    0.0000
 XYZ=   -0.0942   -8.0613   -0.9070 Q=    0.4100 A=    0.0000 R=    0.0000 C=    0.0000
 XYZ=    2.6959    5.8463    2.9032 Q=   -0.8200 A=    0.0000 R=    0.0000 C=    0.0000
 XYZ=    2.1930    6.6663    2.6298 Q=    0.4100 A=    0.0000 R=    0.0000 C=    0.0000
 XYZ=    3.1760    5.4701    2.1107 Q=    0.4100 A=    0.0000 R=    0.0000 C=    0.0000
 XYZ=   -4.1806   -0.7495    4.4447 Q=   -0.8200 A=    0.0000 R=    0.0000 C=    0.0000
 XYZ=   -3.1974   -0.6594    4.6038 Q=    0.4100 A=    0.0000 R=    0.0000 C=    0.0000
 XYZ=   -4.3366   -1.1623    3.5473 Q=    0.4100 A=    0.0000 R=    0.0000 C=    0.0000
 XYZ=    2.4191    7.1082   -0.3284 Q=   -0.8200 A=    0.0000 R=    0.0000 C=    0.0000
 XYZ=    1.8338    7.1835    0.4790 Q=    0.4100 A=    0.0000 R=    0.0000 C=    0.0000
 XYZ=    1.9884    6.5019   -0.9969 Q=    0.4100 A=    0.0000 R=    0.0000 C=    0.0000
 XYZ=    1.0993    7.4067    1.7071 Q=   -0.8200 A=    0.0000 R=    0.0000 C=    0.0000
 XYZ=    1.1157    8.3577    2.0161 Q=    0.4100 A=    0.0000 R=    0.0000 C=    0.0000
 XYZ=    0.1736    7.1675    1.4140 Q=    0.4100 A=    0.0000 R=    0.0000 C=    0.0000
 XYZ=   -6.1839   -1.9443    0.6602 Q=   -0.8200 A=    0.0000 R=    0.0000 C=    0.0000
 XYZ=   -5.4393   -1.8308    1.3181 Q=    0.4100 A=    0.0000 R=    0.0000 C=    0.0000
 XYZ=   -6.3070   -2.9164    0.4607 Q=    0.4100 A=    0.0000 R=    0.0000 C=    0.0000
 XYZ=   -5.3729    2.8218   -5.2201 Q=   -0.8200 A=    0.0000 R=    0.0000 C=    0.0000
 XYZ=   -5.7610    3.0096   -6.1224 Q=    0.4100 A=    0.0000 R=    0.0000 C=    0.0000
 XYZ=   -4.9262    1.9271   -5.2291 Q=    0.4100 A=    0.0000 R=    0.0000 C=    0.0000
 XYZ=   -5.2433    4.7241   -0.1010 Q=   -0.8200 A=    0.0000 R=    0.0000 C=    0.0000
 XYZ=   -5.4306    5.5096   -0.6910 Q=    0.4100 A=    0.0000 R=    0.0000 C=    0.0000
 XYZ=   -6.1065    4.3406    0.2274 Q=    0.4100 A=    0.0000 R=    0.0000 C=    0.0000
 XYZ=    3.6064   -3.2953    5.8169 Q=   -0.8200 A=    0.0000 R=    0.0000 C=    0.0000
 XYZ=    3.3495   -2.9499    4.9142 Q=    0.4100 A=    0.0000 R=    0.0000 C=    0.0000
 XYZ=    3.9114   -2.5348    6.3903 Q=    0.4100 A=    0.0000 R=    0.0000 C=    0.0000
 XYZ=    4.2343    4.4203   -1.8282 Q=   -0.8200 A=    0.0000 R=    0.0000 C=    0.0000
 XYZ=    4.4390    5.2706   -1.3433 Q=    0.4100 A=    0.0000 R=    0.0000 C=    0.0000
 XYZ=    5.0280    4.1473   -2.3718 Q=    0.4100 A=    0.0000 R=    0.0000 C=    0.0000
 XYZ=    6.7297    2.3509    2.1793 Q=   -0.8200 A=    0.0000 R=    0.0000 C=    0.0000
 XYZ=    6.0700    2.9760    2.5966 Q=    0.4100 A=    0.0000 R=    0.0000 C=    0.0000
 XYZ=    6.3103    1.9016    1.3905 Q=    0.4100 A=    0.0000 R=    0.0000 C=    0.0000
 XYZ=   -1.6810   -5.4057    4.6094 Q=   -0.8200 A=    0.0000 R=    0.0000 C=    0.0000
 XYZ=   -0.9893   -5.4906    3.8921 Q=    0.4100 A=    0.0000 R=    0.0000 C=    0.0000
 XYZ=   -1.6275   -6.1965    5.2191 Q=    0.4100 A=    0.0000 R=    0.0000 C=    0.0000
 XYZ=    5.5067    4.3224    2.9239 Q=   -0.8200 A=    0.0000 R=    0.0000 C=    0.0000
 XYZ=    5.1670    4.3698    3.8632 Q=    0.4100 A=    0.0000 R=    0.0000 C=    0.0000
 XYZ=    4.7457    4.4484    2.2875 Q=    0.4100 A=    0.0000 R=    0.0000 C=    0.0000
 XYZ=    6.4147   -3.8585   -0.8191 Q=   -0.8200 A=    0.0000 R=    0.0000 C=    0.0000
 XYZ=    5.6133   -4.3424   -0.4674 Q=    0.4100 A=    0.0000 R=    0.0000 C=    0.0000
 XYZ=    7.2174   -4.4512   -0.7532 Q=    0.4100 A=    0.0000 R=    0.0000 C=    0.0000
 XYZ=   -1.4317    4.6505   -6.5784 Q=   -0.8200 A=    0.0000 R=    0.0000 C=    0.0000
 XYZ=   -1.5242    4.3979   -5.6152 Q=    0.4100 A=    0.0000 R=    0.0000 C=    0.0000
 XYZ=   -2.3372    4.6894   -7.0011 Q=    0.4100 A=    0.0000 R=    0.0000 C=    0.0000
 XYZ=   -0.8810    8.0503   -1.2155 Q=   -0.8200 A=    0.0000 R=    0.0000 C=    0.0000
 XYZ=    0.0247    8.4686   -1.2848 Q=    0.4100 A=    0.0000 R=    0.0000 C=    0.0000
 XYZ=   -0.9823    7.6214   -0.3178 Q=    0.4100 A=    0.0000 R=    0.0000 C=    0.0000
 XYZ=    6.4682   -2.6367    1.3364 Q=   -0.8200 A=    0.0000 R=    0.0000 C=    0.0000
 XYZ=    6.1925   -2.9247    0.4193 Q=    0.4100 A=    0.0000 R=    0.0000 C=    0.0000
 XYZ=    6.6547   -3.4435    1.8970 Q=    0.4100 A=    0.0000 R=    0.0000 C=    0.0000
 XYZ=    7.3324   -0.6361    0.6957 Q=   -0.8200 A=    0.0000 R=    0.0000 C=    0.0000
 XYZ=    6.6120    0.0568    0.6640 Q=    0.4100 A=    0.0000 R=    0.0000 C=    0.0000
 XYZ=    6.9629   -1.4839    1.0762 Q=    0.4100 A=    0.0000 R=    0.0000 C=    0.0000
 XYZ=    4.3943   -1.2337   -4.8150 Q=   -0.8200 A=    0.0000 R=    0.0000 C=    0.0000
 XYZ=    4.0726   -0.7707   -5.6410 Q=    0.4100 A=    0.0000 R=    0.0000 C=    0.0000
 XYZ=    4.7544   -0.5572   -4.1726 Q=    0.4100 A=    0.0000 R=    0.0000 C=    0.0000
 XYZ=    3.1018    0.2296    6.7336 Q=   -0.8200 A=    0.0000 R=    0.0000 C=    0.0000
 XYZ=    3.6503   -0.5126    7.1187 Q=    0.4100 A=    0.0000 R=    0.0000 C=    0.0000
 XYZ=    3.7069    0.9219    6.3404 Q=    0.4100 A=    0.0000 R=    0.0000 C=    0.0000
 XYZ=   -4.7522   -6.1825   -0.6565 Q=   -0.8200 A=    0.0000 R=    0.0000 C=    0.0000
 XYZ=   -4.9589   -6.0999   -1.6315 Q=    0.4100 A=    0.0000 R=    0.0000 C=    0.0000
 XYZ=   -4.5813   -7.1419   -0.4322 Q=    0.4100 A=    0.0000 R=    0.0000 C=    0.0000
 XYZ=    5.3074   -3.7482    4.2619 Q=   -0.8200 A=    0.0000 R=    0.0000 C=    0.0000
 XYZ=    5.0988   -2.9550    3.6898 Q=    0.4100 A=    0.0000 R=    0.0000 C=    0.0000
 XYZ=    4.6730   -3.7779    5.0345 Q=    0.4100 A=    0.0000 R=    0.0000 C=    0.0000
 XYZ=   -4.7367    4.4682    3.8390 Q=   -0.8200 A=    0.0000 R=    0.0000 C=    0.0000
 XYZ=   -5.4087    5.0177    3.3425 Q=    0.4100 A=    0.0000 R=    0.0000 C=    0.0000
 XYZ=   -5.1951    3.9594    4.5676 Q=    0.4100 A=    0.0000 R=    0.0000 C=    0.0000
 XYZ=    0.5533    6.3472   -4.0849 Q=   -0.8200 A=    0.0000 R=    0.0000 C=    0.0000
 XYZ=   -0.3196    6.5502   -3.6412 Q=    0.4100 A=    0.0000 R=    0.0000 C=    0.0000
 XYZ=    0.3849    5.8909   -4.9587 Q=    0.4100 A=    0.0000 R=    0.0000 C=    0.0000
 XYZ=   -1.9298   -3.1936    5.2995 Q=   -0.8200 A=    0.0000 R=    0.0000 C=    0.0000
 XYZ=   -2.3486   -3.0704    6.1992 Q=    0.4100 A=    0.0000 R=    0.0000 C=    0.0000
 XYZ=   -1.8852   -4.1689    5.0833 Q=    0.4100 A=    0.0000 R=    0.0000 C=    0.0000
 XYZ=    3.0689    5.2213    5.1039 Q=   -0.8200 A=    0.0000 R=    0.0000 C=    0.0000
 XYZ=    2.8147    5.4627    4.1673 Q=    0.4100 A=    0.0000 R=    0.0000 C=    0.0000
 XYZ=    2.2428    5.1273    5.6597 Q=    0.4100 A=    0.0000 R=    0.0000 C=    0.0000
 XYZ=   -3.7434    6.6563   -3.0387 Q=   -0.8200 A=    0.0000 R=    0.0000 C=    0.0000
 XYZ=   -2.7623    6.5786   -2.8615 Q=    0.4100 A=    0.0000 R=    0.0000 C=    0.0000
 XYZ=   -4.1083    5.7603   -3.2919 Q=    0.4100 A=    0.0000 R=    0.0000 C=    0.0000
 XYZ=   -6.7529    2.7440   -3.3645 Q=   -0.8200 A=    0.0000 R=    0.0000 C=    0.0000
 XYZ=   -6.2848    2.9839   -4.2151 Q=    0.4100 A=    0.0000 R=    0.0000 C=    0.0000
 XYZ=   -7.6813    2.4351   -3.5708 Q=    0.4100 A=    0.0000 R=    0.0000 C=    0.0000
 XYZ=   -6.1450   -4.3586    0.5975 Q=   -0.8200 A=    0.0000 R=    0.0000 C=    0.0000
 XYZ=   -5.7088   -5.0959    0.0815 Q=    0.4100 A=    0.0000 R=    0.0000 C=    0.0000
 XYZ=   -5.7972   -4.3568    1.5350 Q=    0.4100 A=    0.0000 R=    0.0000 C=    0.0000
 XYZ=   -3.5533   -5.8722    3.3676 Q=   -0.8200 A=    0.0000 R=    0.0000 C=    0.0000
 XYZ=   -2.7014   -5.6295    3.8317 Q=    0.4100 A=    0.0000 R=    0.0000 C=    0.0000
 XYZ=   -3.4027   -5.8838    2.3791 Q=    0.4100 A=    0.0000 R=    0.0000 C=    0.0000
 XYZ=    5.9410   -0.2016    4.7252 Q=   -0.8200 A=    0.0000 R=    0.0000 C=    0.0000
 XYZ=    6.4357   -0.8681    5.2830 Q=    0.4100 A=    0.0000 R=    0.0000 C=    0.0000
 XYZ=    5.4692    0.4476    5.3219 Q=    0.4100 A=    0.0000 R=    0.0000 C=    0.0000
 XYZ=    4.9500    1.5683    5.9064 Q=   -0.8200 A=    0.0000 R=    0.0000 C=    0.0000
 XYZ=    5.4390    1.6245    6.7768 Q=    0.4100 A=    0.0000 R=    0.0000 C=    0.0000
 XYZ=    4.8351    2.4872    5.5288 Q=    0.4100 A=    0.0000 R=    0.0000 C=    0.0000
 XYZ=    6.0712    1.5843   -2.0938 Q=   -0.8200 A=    0.0000 R=    0.0000 C=    0.0000
 XYZ=    6.0809    2.4755   -2.5474 Q=    0.4100 A=    0.0000 R=    0.0000 C=    0.0000
 XYZ=    6.0474    0.8599   -2.7828 Q=    0.4100 A=    0.0000 R=    0.0000 C=    0.0000
 XYZ=   -7.0108    0.7724    2.8520 Q=   -0.8200 A=    0.0000 R=    0.0000 C=    0.0000
 XYZ=   -6.4120    1.3266    2.2738 Q=    0.4100 A=    0.0000 R=    0.0000 C=    0.0000
 XYZ=   -6.7644    0.9063    3.8119 Q=    0.4100 A=    0.0000 R=    0.0000 C=    0.0000
 XYZ=   -5.7992   -5.9772   -2.9850 Q=   -0.8200 A=    0.0000 R=    0.0000 C=    0.0000
 XYZ=   -6.7788   -6.1174   -3.1294 Q=    0.4100 A=    0.0000 R=    0.0000 C=    0.0000
 XYZ=   -5.4078   -5.5155   -3.7811 Q=    0.4100 A=    0.0000 R=    0.0000 C=    0.0000
 XYZ=    3.4068   -0.4808   -6.8695 Q=   -0.8200 A=    0.0000 R=    0.0000 C=    0.0000
 XYZ=    3.7816    0.2510   -7.4387 Q=    0.4100 A=    0.0000 R=    0.0000 C=    0.0000
 XYZ=    2.4220   -0.5543   -7.0271 Q=    0.4100 A=    0.0000 R=    0.0000 C=    0.0000
 XYZ=    4.5094    6.2547   -0.3934 Q=   -0.8200 A=    0.0000 R=    0.0000 C=    0.0000
 XYZ=    3.6500    6.7623   -0.4552 Q=    0.4100 A=    0.0000 R=    0.0000 C=    0.0000
 XYZ=    5.2779    6.8897   -0.4717 Q=    0.4100 A=    0.0000 R=    0.0000 C=    0.0000
 XYZ=    5.7804   -3.4475   -4.6102 Q=   -0.8200 A=    0.0000 R=    0.0000 C=    0.0000
 XYZ=    6.2848   -3.3592   -3.7512 Q=    0.4100 A=    0.0000 R=    0.0000 C=    0.0000
 XYZ=    4.9887   -2.8366   -4.5961 Q=    0.4100 A=    0.0000 R=    0.0000 C=    0.0000
 XYZ=    4.0172   -5.9884    3.3906 Q=   -0.8200 A=    0.0000 R=    0.0000 C=    0.0000
 XYZ=    3.0956   -6.1803    3.7280 Q=    0.4100 A=    0.0000 R=    0.0000 C=    0.0000
 XYZ=    4.3536   -5.1419    3.8033 Q=    0.4100 A=    0.0000 R=    0.0000 C=    0.0000
 XYZ=   -3.9655   -7.0289   -5.2599 Q=   -0.8200 A=    0.0000 R=    0.0000 C=    0.0000
 XYZ=   -4.3061   -6.1208   -5.0163 Q=    0.4100 A=    0.0000 R=    0.0000 C=    0.0000
 XYZ=   -4.3128   -7.7015   -4.6064 Q=    0.4100 A=    0.0000 R=    0.0000 C=    0.0000
 XYZ=    6.9080   -2.2651   -2.3095 Q=   -0.8200 A=    0.0000 R=    0.0000 C=    0.0000
 XYZ=    7.8679   -2.0215   -2.1707 Q=    0.4100 A=    0.0000 R=    0.0000 C=    0.0000
 XYZ=    6.6781   -3.0531   -1.7383 Q=    0.4100 A=    0.0000 R=    0.0000 C=    0.0000
 XYZ=    1.8828   -5.9774    4.5668 Q=   -0.8200 A=    0.0000 R=    0.0000 C=    0.0000
 XYZ=    1.4767   -6.8445    4.8552 Q=    0.4100 A=    0.0000 R=    0.0000 C=    0.0000
 XYZ=    1.9582   -5.3662    5.3547 Q=    0.4100 A=    0.0000 R=    0.0000 C=    0.0000
 XYZ=    5.6961   -6.5049    1.7198 Q=   -0.8200 A=    0.0000 R=    0.0000 C=    0.0000
 XYZ=    5.3550   -5.9167    0.9865 Q=    0.4100 A=    0.0000 R=    0.0000 C=    0.0000
 XYZ=    5.0446   -6.5037    2.4784 Q=    0.4100 A=    0.0000 R=    0.0000 C=    0.0000
 XYZ=    1.5440    2.0275    8.1221 Q=   -0.8200 A=    0.0000 R=    0.0000 C=    0.0000
 XYZ=    1.9201    1.3163    7.5281 Q=    0.4100 A=    0.0000 R=    0.0000 C=    0.0000
 XYZ=    0.5871    1.8201    8.3255 Q=    0.4100 A=    0.0000 R=    0.0000 C=    0.0000
 XYZ=   -5.1633   -4.3147    2.6905 Q=   -0.8200 A=    0.0000 R=    0.0000 C=    0.0000
 XYZ=   -5.6034   -4.0278    3.5414 Q=    0.4100 A=    0.0000 R=    0.0000 C=    0.0000
 XYZ=   -4.3645   -4.8780    2.9018 Q=    0.4100 A=    0.0000 R=    0.0000 C=    0.0000
 XYZ=   -7.1090    4.0123    0.9574 Q=   -0.8200 A=    0.0000 R=    0.0000 C=    0.0000
 XYZ=   -6.7688    3.1400    1.3087 Q=    0.4100 A=    0.0000 R=    0.0000 C=    0.0000
 XYZ=   -8.1088    4.0123    0.9771 Q=    0.4100 A=    0.0000 R=    0.0000 C=    0.0000
 XYZ=   -8.8184   -0.0678   -1.2726 Q=   -0.8200 A=    0.0000 R=    0.0000 C=    0.0000
 XYZ=   -8.9776    0.8376   -1.6662 Q=    0.4100 A=    0.0000 R=    0.0000 C=    0.0000
 XYZ=   -7.8488   -0.2995   -1.3509 Q=    0.4100 A=    0.0000 R=    0.0000 C=    0.0000
 XYZ=   -6.0751    0.9497    4.9203 Q=   -0.8200 A=    0.0000 R=    0.0000 C=    0.0000
 XYZ=   -5.1432    0.6341    4.7414 Q=    0.4100 A=    0.0000 R=    0.0000 C=    0.0000
 XYZ=   -6.5735    0.2466    5.4277 Q=    0.4100 A=    0.0000 R=    0.0000 C=    0.0000
 XYZ=    4.5940   -6.7404   -1.8483 Q=   -0.8200 A=    0.0000 R=    0.0000 C=    0.0000
 XYZ=    5.3101   -7.4364   -1.9020 Q=    0.4100 A=    0.0000 R=    0.0000 C=    0.0000
 XYZ=    4.4346   -6.3554   -2.7573 Q=    0.4100 A=    0.0000 R=    0.0000 C=    0.0000
 XYZ=    6.3231   -0.2981   -3.5157 Q=   -0.8200 A=    0.0000 R=    0.0000 C=    0.0000
 XYZ=    6.8251   -0.4376   -4.3692 Q=    0.4100 A=    0.0000 R=    0.0000 C=    0.0000
 XYZ=    6.4986   -1.0639   -2.8969 Q=    0.4100 A=    0.0000 R=    0.0000 C=    0.0000
 XYZ=   -4.5532    1.1813   -7.9418 Q=   -0.8200 A=    0.0000 R=    0.0000 C=    0.0000
 XYZ=   -5.2497    0.9684   -8.6270 Q=    0.4100 A=    0.0000 R=    0.0000 C=    0.0000
 XYZ=   -4.6992    0.6145   -7.1309 Q=    0.4100 A=    0.0000 R=    0.0000 C=    0.0000
 XYZ=    4.9497    3.8806    5.2500 Q=   -0.8200 A=    0.0000 R=    0.0000 C=    0.0000
 XYZ=    5.6640    4.2706    5.8312 Q=    0.4100 A=    0.0000 R=    0.0000 C=    0.0000
 XYZ=    4.1291    4.4496    5.3032 Q=    0.4100 A=    0.0000 R=    0.0000 C=    0.0000
 XYZ=   -1.0302   -1.9074    8.0518 Q=   -0.8200 A=    0.0000 R=    0.0000 C=    0.0000
 XYZ=   -0.5035   -2.2083    7.2567 Q=    0.4100 A=    0.0000 R=    0.0000 C=    0.0000
 XYZ=   -0.5570   -2.1826    8.8886 Q=    0.4100 A=    0.0000 R=    0.0000 C=    0.0000
 XYZ=   -4.1530    6.2674    5.0495 Q=   -0.8200 A=    0.0000 R=    0.0000 C=    0.0000
 XYZ=   -4.9668    6.6241    5.5083 Q=    0.4100 A=    0.0000 R=    0.0000 C=    0.0000
 XYZ=   -4.4063    5.4822    4.4844 Q=    0.4100 A=    0.0000 R=    0.0000 C=    0.0000
 XYZ=    1.7957   -4.4674    6.5292 Q=   -0.8200 A=    0.0000 R=    0.0000 C=    0.0000
 XYZ=    2.6621   -4.0578    6.2437 Q=    0.4100 A=    0.0000 R=    0.0000 C=    0.0000
 XYZ=    1.0725   -3.7777    6.4912 Q=    0.4100 A=    0.0000 R=    0.0000 C=    0.0000
 XYZ=    7.9972    0.8454   -1.0436 Q=   -0.8200 A=    0.0000 R=    0.0000 C=    0.0000
 XYZ=    7.1241    1.1991   -1.3793 Q=    0.4100 A=    0.0000 R=    0.0000 C=    0.0000
 XYZ=    7.8317    0.2128   -0.2870 Q=    0.4100 A=    0.0000 R=    0.0000 C=    0.0000
 XYZ=    1.2564    9.0019   -1.3463 Q=   -0.8200 A=    0.0000 R=    0.0000 C=    0.0000
 XYZ=    1.1157    9.0074   -2.3364 Q=    0.4100 A=    0.0000 R=    0.0000 C=    0.0000
 XYZ=    1.8533    8.2387   -1.0988 Q=    0.4100 A=    0.0000 R=    0.0000 C=    0.0000
 XYZ=   -2.0212   -7.1914   -6.4842 Q=   -0.8200 A=    0.0000 R=    0.0000 C=    0.0000
 XYZ=   -2.3098   -7.5085   -7.3877 Q=    0.4100 A=    0.0000 R=    0.0000 C=    0.0000
 XYZ=   -2.8279   -6.9978   -5.9257 Q=    0.4100 A=    0.0000 R=    0.0000 C=    0.0000
 XYZ=   -7.7478   -1.3893    2.3264 Q=   -0.8200 A=    0.0000 R=    0.0000 C=    0.0000
 XYZ=   -7.1315   -1.8562    1.6921 Q=    0.4100 A=    0.0000 R=    0.0000 C=    0.0000
 XYZ=   -7.4065   -0.4663    2.5040 Q=    0.4100 A=    0.0000 R=    0.0000 C=    0.0000
 XYZ=    0.5598    5.5815   -6.2874 Q=   -0.8200 A=    0.0000 R=    0.0000 C=    0.0000
 XYZ=   -0.2884    5.1179   -6.5438 Q=    0.4100 A=    0.0000 R=    0.0000 C=    0.0000
 XYZ=    0.9676    6.0024   -7.0977 Q=    0.4100 A=    0.0000 R=    0.0000 C=    0.0000
 XYZ=   -2.7870    2.7588   -7.9930 Q=   -0.8200 A=    0.0000 R=    0.0000 C=    0.0000
 XYZ=   -3.4398    2.0033   -7.9371 Q=    0.4100 A=    0.0000 R=    0.0000 C=    0.0000
 XYZ=   -3.2837    3.6229   -8.0762 Q=    0.4100 A=    0.0000 R=    0.0000 C=    0.0000
 XYZ=    7.8394    0.8289    3.9310 Q=   -0.8200 A=    0.0000 R=    0.0000 C=    0.0000
 XYZ=    7.5149    1.5227    3.2880 Q=    0.4100 A=    0.0000 R=    0.0000 C=    0.0000
 XYZ=    7.0576    0.3327    4.3085 Q=    0.4100 A=    0.0000 R=    0.0000 C=    0.0000
 XYZ=   -7.5555    4.9205   -2.6630 Q=   -0.8200 A=    0.0000 R=    0.0000 C=    0.0000
 XYZ=   -6.8795    5.5778   -2.3298 Q=    0.4100 A=    0.0000 R=    0.0000 C=    0.0000
 XYZ=   -7.0864    4.1202   -3.0364 Q=    0.4100 A=    0.0000 R=    0.0000 C=    0.0000
 XYZ=   -0.7883   -5.6708   -7.8748 Q=   -0.8200 A=    0.0000 R=    0.0000 C=    0.0000
 XYZ=    0.1493   -5.8914   -7.6058 Q=    0.4100 A=    0.0000 R=    0.0000 C=    0.0000
 XYZ=   -1.4284   -6.1247   -7.2549 Q=    0.4100 A=    0.0000 R=    0.0000 C=    0.0000
 XYZ=    5.0999   -5.6195   -4.3250 Q=   -0.8200 A=    0.0000 R=    0.0000 C=    0.0000
 XYZ=    5.4145   -4.6719   -4.3797 Q=    0.4100 A=    0.0000 R=    0.0000 C=    0.0000
 XYZ=    4.6970   -5.8880   -5.2000 Q=    0.4100 A=    0.0000 R=    0.0000 C=    0.0000
 XYZ=    6.6317   -4.6243    2.7427 Q=   -0.8200 A=    0.0000 R=    0.0000 C=    0.0000
 XYZ=    6.0774   -4.2291    3.4752 Q=    0.4100 A=    0.0000 R=    0.0000 C=    0.0000
 XYZ=    6.2595   -5.5167    2.4875 Q=    0.4100 A=    0.0000 R=    0.0000 C=    0.0000
 XYZ=   -6.4621    5.6278    2.6216 Q=   -0.8200 A=    0.0000 R=    0.0000 C=    0.0000
 XYZ=   -6.9059    5.2915    3.4523 Q=    0.4100 A=    0.0000 R=    0.0000 C=    0.0000
 XYZ=   -6.6922    5.0285    1.8548 Q=    0.4100 A=    0.0000 R=    0.0000 C=    0.0000
 XYZ=   -2.2071   -8.6644    0.8110 Q=   -0.8200 A=    0.0000 R=    0.0000 C=    0.0000
 XYZ=   -3.1632   -8.7298    0.5254 Q=    0.4100 A=    0.0000 R=    0.0000 C=    0.0000
 XYZ=   -1.6125   -8.8846    0.0377 Q=    0.4100 A=    0.0000 R=    0.0000 C=    0.0000
 XYZ=    0.2155   -9.4605    2.3590 Q=   -0.8200 A=    0.0000 R=    0.0000 C=    0.0000
 XYZ=    0.4361  -10.2130    1.7384 Q=    0.4100 A=    0.0000 R=    0.0000 C=    0.0000
 XYZ=   -0.0392   -8.6533    1.8266 Q=    0.4100 A=    0.0000 R=    0.0000 C=    0.0000
 XYZ=    1.2418    4.3415    7.5150 Q=   -0.8200 A=    0.0000 R=    0.0000 C=    0.0000
 XYZ=    1.7123    4.8945    8.2027 Q=    0.4100 A=    0.0000 R=    0.0000 C=    0.0000
 XYZ=    1.3431    3.3724    7.7403 Q=    0.4100 A=    0.0000 R=    0.0000 C=    0.0000
 XYZ=   -4.9734   -2.1201    6.3640 Q=   -0.8200 A=    0.0000 R=    0.0000 C=    0.0000
 XYZ=   -4.5896   -1.6761    5.5543 Q=    0.4100 A=    0.0000 R=    0.0000 C=    0.0000
 XYZ=   -4.2434   -2.5807    6.8690 Q=    0.4100 A=    0.0000 R=    0.0000 C=    0.0000
 XYZ=   -5.6751   -3.7173   -6.5553 Q=   -0.8200 A=    0.0000 R=    0.0000 C=    0.0000
 XYZ=   -5.1900   -4.2430   -7.2541 Q=    0.4100 A=    0.0000 R=    0.0000 C=    0.0000
 XYZ=   -6.3845   -3.1615   -6.9889 Q=    0.4100 A=    0.0000 R=    0.0000 C=    0.0000
 XYZ=   -6.0542    6.5674   -1.8276 Q=   -0.8200 A=    0.0000 R=    0.0000 C=    0.0000
 XYZ=   -5.1953    6.6357   -2.3351 Q=    0.4100 A=    0.0000 R=    0.0000 C=    0.0000
 XYZ=   -6.2632    7.4497   -1.4058 Q=    0.4100 A=    0.0000 R=    0.0000 C=    0.0000
 XYZ=   -2.2201    8.7723    2.0818 Q=   -0.8200 A=    0.0000 R=    0.0000 C=    0.0000
 XYZ=   -2.4363    8.5108    3.0225 Q=    0.4100 A=    0.0000 R=    0.0000 C=    0.0000
 XYZ=   -2.7316    9.5966    1.8391 Q=    0.4100 A=    0.0000 R=    0.0000 C=    0.0000
 XYZ=    4.5621   -1.6098    7.1981 Q=   -0.8200 A=    0.0000 R=    0.0000 C=    0.0000
 XYZ=    4.6416   -1.6174    8.1949 Q=    0.4100 A=    0.0000 R=    0.0000 C=    0.0000
 XYZ=    5.4723   -1.6847    6.7906 Q=    0.4100 A=    0.0000 R=    0.0000 C=    0.0000
 XYZ=    0.2250    4.0735   -8.6461 Q=   -0.8200 A=    0.0000 R=    0.0000 C=    0.0000
 XYZ=   -0.4796    3.8415   -7.9754 Q=    0.4100 A=    0.0000 R=    0.0000 C=    0.0000
 XYZ=    1.0474    3.5339   -8.4658 Q=    0.4100 A=    0.0000 R=    0.0000 C=    0.0000
 XYZ=   -5.1805   -8.2670   -3.6585 Q=   -0.8200 A=    0.0000 R=    0.0000 C=    0.0000
 XYZ=   -5.4611   -7.3649   -3.3306 Q=    0.4100 A=    0.0000 R=    0.0000 C=    0.0000
 XYZ=   -5.9767   -8.8709   -3.6945 Q=    0.4100 A=    0.0000 R=    0.0000 C=    0.0000
 XYZ=   -0.6905   -9.3648   -0.9145 Q=   -0.8200 A=    0.0000 R=    0.0000 C=    0.0000
 XYZ=   -0.1721   -9.9873   -0.3282 Q=    0.4100 A=    0.0000 R=    0.0000 C=    0.0000
 XYZ=   -1.2161   -9.8943   -1.5804 Q=    0.4100 A=    0.0000 R=    0.0000 C=    0.0000
 XYZ=   -3.6650    5.0503   -7.3279 Q=   -0.8200 A=    0.0000 R=    0.0000 C=    0.0000
 XYZ=   -4.3896    4.8393   -6.6718 Q=    0.4100 A=    0.0000 R=    0.0000 C=    0.0000
 XYZ=   -4.0734    5.3242   -8.1987 Q=    0.4100 A=    0.0000 R=    0.0000 C=    0.0000
 XYZ=    2.9550    4.5908   -6.7233 Q=   -0.8200 A=    0.0000 R=    0.0000 C=    0.0000
 XYZ=    3.8633    4.7169   -6.3243 Q=    0.4100 A=    0.0000 R=    0.0000 C=    0.0000
 XYZ=    2.2727    5.0421   -6.1481 Q=    0.4100 A=    0.0000 R=    0.0000 C=    0.0000
 XYZ=    0.8061    8.6527   -3.7188 Q=   -0.8200 A=    0.0000 R=    0.0000 C=    0.0000
 XYZ=    0.2126    9.2022   -4.3068 Q=    0.4100 A=    0.0000 R=    0.0000 C=    0.0000
 XYZ=    0.9535    7.7568   -4.1380 Q=    0.4100 A=    0.0000 R=    0.0000 C=    0.0000
 XYZ=   -2.8676    8.1000    4.2872 Q=   -0.8200 A=    0.0000 R=    0.0000 C=    0.0000
 XYZ=   -3.3489    7.3154    4.6782 Q=    0.4100 A=    0.0000 R=    0.0000 C=    0.0000
 XYZ=   -3.3154    8.9451    4.5793 Q=    0.4100 A=    0.0000 R=    0.0000 C=    0.0000
 XYZ=   -2.5456    9.7632   -1.7465 Q=   -0.8200 A=    0.0000 R=    0.0000 C=    0.0000
 XYZ=   -3.2641    9.8547   -1.0569 Q=    0.4100 A=    0.0000 R=    0.0000 C=    0.0000
 XYZ=   -1.8783    9.0825   -1.4441 Q=    0.4100 A=    0.0000 R=    0.0000 C=    0.0000
 XYZ=   -6.1054    3.2233    5.6681 Q=   -0.8200 A=    0.0000 R=    0.0000 C=    0.0000
 XYZ=   -5.9499    3.0514    6.6409 Q=    0.4100 A=    0.0000 R=    0.0000 C=    0.0000
 XYZ=   -6.2114    2.3522    5.1886 Q=    0.4100 A=    0.0000 R=    0.0000 C=    0.0000
 XYZ=    6.2703    3.8815   -2.8312 Q=   -0.8200 A=    0.0000 R=    0.0000 C=    0.0000
 XYZ=    7.1088    4.2293   -2.4117 Q=    0.4100 A=    0.0000 R=    0.0000 C=    0.0000
 XYZ=    6.2946    4.0527   -3.8162 Q=    0.4100 A=    0.0000 R=    0.0000 C=    0.0000
 XYZ=    0.4098    9.5425    2.5451 Q=   -0.8200 A=    0.0000 R=    0.0000 C=    0.0000
 XYZ=   -0.5209    9.2060    2.4013 Q=    0.4100 A=    0.0000 R=    0.0000 C=    0.0000
 XYZ=    0.6914    9.3521    3.4856 Q=    0.4100 A=    0.0000 R=    0.0000 C=    0.0000
 XYZ=    4.9929   -1.9749   -8.0217 Q=   -0.8200 A=    0.0000 R=    0.0000 C=    0.0000
 XYZ=    5.3866   -2.6876   -7.4411 Q=    0.4100 A=    0.0000 R=    0.0000 C=    0.0000
 XYZ=    4.1850   -1.5900   -7.5754 Q=    0.4100 A=    0.0000 R=    0.0000 C=    0.0000
 XYZ=   -3.1791    5.3642    7.3698 Q=   -0.8200 A=    0.0000 R=    0.0000 C=    0.0000
 XYZ=   -3.4020    5.4970    6.4040 Q=    0.4100 A=    0.0000 R=    0.0000 C=    0.0000
 XYZ=   -2.3878    4.7579    7.4489 Q=    0.4100 A=    0.0000 R=    0.0000 C=    0.0000
 XYZ=   -1.2322    3.9785    8.0300 Q=   -0.8200 A=    0.0000 R=    0.0000 C=    0.0000
 XYZ=   -0.3236    4.2708    7.7314 Q=    0.4100 A=    0.0000 R=    0.0000 C=    0.0000
 XYZ=   -1.1729    3.0645    8.4314 Q=    0.4100 A=    0.0000 R=    0.0000 C=    0.0000
 XYZ=   -3.4970    8.8736   -3.5556 Q=   -0.8200 A=    0.0000 R=    0.0000 C=    0.0000
 XYZ=   -3.0657    9.3420   -2.7845 Q=    0.4100 A=    0.0000 R=    0.0000 C=    0.0000
 XYZ=   -3.6381    7.9110   -3.3242 Q=    0.4100 A=    0.0000 R=    0.0000 C=    0.0000
 XYZ=    8.8620    3.3961    2.6414 Q=   -0.8200 A=    0.0000 R=    0.0000 C=    0.0000
 XYZ=    9.1155    3.1271    3.5707 Q=    0.4100 A=    0.0000 R=    0.0000 C=    0.0000
 XYZ=    8.0601    2.8743    2.3504 Q=    0.4100 A=    0.0000 R=    0.0000 C=    0.0000
 XYZ=    9.4027   -0.2568    1.7238 Q=   -0.8200 A=    0.0000 R=    0.0000 C=    0.0000
 XYZ=    9.2923   -0.0553    2.6971 Q=    0.4100 A=    0.0000 R=    0.0000 C=    0.0000
 XYZ=    8.5066   -0.4327    1.3162 Q=    0.4100 A=    0.0000 R=    0.0000 C=    0.0000
 XYZ=    7.6799    5.4444    2.8056 Q=   -0.8200 A=    0.0000 R=    0.0000 C=    0.0000
 XYZ=    6.7402    5.1256    2.9298 Q=    0.4100 A=    0.0000 R=    0.0000 C=    0.0000
 XYZ=    8.2665    4.6694    2.5702 Q=    0.4100 A=    0.0000 R=    0.0000 C=    0.0000
 XYZ=   -4.3116   -8.6254   -0.0093 Q=   -0.8200 A=    0.0000 R=    0.0000 C=    0.0000
 XYZ=   -5.0618   -8.6976    0.6480 Q=    0.4100 A=    0.0000 R=    0.0000 C=    0.0000
 XYZ=   -4.5505   -9.1225   -0.8435 Q=    0.4100 A=    0.0000 R=    0.0000 C=    0.0000
 XYZ=   -0.8188    8.2420    5.7060 Q=   -0.8200 A=    0.0000 R=    0.0000 C=    0.0000
 XYZ=   -1.5275    8.0173    5.0373 Q=    0.4100 A=    0.0000 R=    0.0000 C=    0.0000
 XYZ=   -1.2418    8.4090    6.5967 Q=    0.4100 A=    0.0000 R=    0.0000 C=    0.0000
 XYZ=   -2.1207    0.0711    9.0436 Q=   -0.8200 A=    0.0000 R=    0.0000 C=    0.0000
 XYZ=   -1.7945   -0.7190    8.5245 Q=    0.4100 A=    0.0000 R=    0.0000 C=    0.0000
 XYZ=   -2.9249   -0.1899    9.5776 Q=    0.4100 A=    0.0000 R=    0.0000 C=    0.0000
 XYZ=   -0.8244   -9.3296   -6.3033 Q=   -0.8200 A=    0.0000 R=    0.0000 C=    0.0000
 XYZ=   -1.1670   -8.4010   -6.1605 Q=    0.4100 A=    0.0000 R=    0.0000 C=    0.0000
 XYZ=   -1.0274   -9.6196   -7.2385 Q=    0.4100 A=    0.0000 R=    0.0000 C=    0.0000
 XYZ=    0.7097   -7.8215    4.8482 Q=   -0.8200 A=    0.0000 R=    0.0000 C=    0.0000
 XYZ=   -0.0786   -7.8483    5.4629 Q=    0.4100 A=    0.0000 R=    0.0000 C=    0.0000
 XYZ=    0.5507   -8.4361    4.0754 Q=    0.4100 A=    0.0000 R=    0.0000 C=    0.0000
 XYZ=   -7.4968   -6.4674    1.2458 Q=   -0.8200 A=    0.0000 R=    0.0000 C=    0.0000
 XYZ=   -8.0811   -6.8400    0.5248 Q=    0.4100 A=    0.0000 R=    0.0000 C=    0.0000
 XYZ=   -7.1428   -5.5766    0.9607 Q=    0.4100 A=    0.0000 R=    0.0000 C=    0.0000
 XYZ=   -1.0966   -1.7894  -10.3241 Q=   -0.8200 A=    0.0000 R=    0.0000 C=    0.0000
 XYZ=   -1.0743   -2.6225  -10.8767 Q=    0.4100 A=    0.0000 R=    0.0000 C=    0.0000
 XYZ=   -1.6495   -1.9469   -9.5058 Q=    0.4100 A=    0.0000 R=    0.0000 C=    0.0000
 XYZ=   -6.1067    3.2257   -7.5417 Q=   -0.8200 A=    0.0000 R=    0.0000 C=    0.0000
 XYZ=   -5.9527    4.0245   -8.1234 Q=    0.4100 A=    0.0000 R=    0.0000 C=    0.0000
 XYZ=   -5.5376    2.4674   -7.8596 Q=    0.4100 A=    0.0000 R=    0.0000 C=    0.0000
 XYZ=   -3.0122   -3.0719    7.3900 Q=   -0.8200 A=    0.0000 R=    0.0000 C=    0.0000
 XYZ=   -2.3027   -2.5600    7.8743 Q=    0.4100 A=    0.0000 R=    0.0000 C=    0.0000
 XYZ=   -3.2265   -3.9063    7.8979 Q=    0.4100 A=    0.0000 R=    0.0000 C=    0.0000
 XYZ=   -9.5201   -0.8671    0.9036 Q=   -0.8200 A=    0.0000 R=    0.0000 C=    0.0000
 XYZ=   -9.1269   -0.5149    0.0543 Q=    0.4100 A=    0.0000 R=    0.0000 C=    0.0000
 XYZ=   -8.7859   -1.1797    1.5063 Q=    0.4100 A=    0.0000 R=    0.0000 C=    0.0000
 XYZ=    2.5517    3.0095   -8.3764 Q=   -0.8200 A=    0.0000 R=    0.0000 C=    0.0000
 XYZ=    2.7436    3.6237   -7.6109 Q=    0.4100 A=    0.0000 R=    0.0000 C=    0.0000
 XYZ=    3.2099    2.2566   -8.3727 Q=    0.4100 A=    0.0000 R=    0.0000 C=    0.0000
 XYZ=   -5.0999   -6.9228    4.7355 Q=   -0.8200 A=    0.0000 R=    0.0000 C=    0.0000
 XYZ=   -4.5503   -6.3984    4.0851 Q=    0.4100 A=    0.0000 R=    0.0000 C=    0.0000
 XYZ=   -5.8873   -6.3772    5.0224 Q=    0.4100 A=    0.0000 R=    0.0000 C=    0.0000
 XYZ=   -9.2608    1.1984    2.3162 Q=   -0.8200 A=    0.0000 R=    0.0000 C=    0.0000
 XYZ=   -8.3492    0.9833    2.6666 Q=    0.4100 A=    0.0000 R=    0.0000 C=    0.0000
 XYZ=   -9.5935    0.4352    1.7622 Q=    0.4100 A=    0.0000 R=    0.0000 C=    0.0000
 XYZ=    6.0726   -3.8406   -6.9127 Q=   -0.8200 A=    0.0000 R=    0.0000 C=    0.0000
 XYZ=    6.1290   -3.6876   -5.9260 Q=    0.4100 A=    0.0000 R=    0.0000 C=    0.0000
 XYZ=    6.9643   -4.1362   -7.2556 Q=    0.4100 A=    0.0000 R=    0.0000 C=    0.0000
 XYZ=   -4.3713   -9.7545   -1.9389 Q=   -0.8200 A=    0.0000 R=    0.0000 C=    0.0000
 XYZ=   -5.0777  -10.4550   -2.0405 Q=    0.4100 A=    0.0000 R=    0.0000 C=    0.0000
 XYZ=   -4.3967   -9.1388   -2.7265 Q=    0.4100 A=    0.0000 R=    0.0000 C=    0.0000
 XYZ=    7.3637   -6.3305   -3.1820 Q=   -0.8200 A=    0.0000 R=    0.0000 C=    0.0000
 XYZ=    6.4334   -6.3137   -3.5484 Q=    0.4100 A=    0.0000 R=    0.0000 C=    0.0000
 XYZ=    8.0058   -6.0333   -3.8887 Q=    0.4100 A=    0.0000 R=    0.0000 C=    0.0000
 XYZ=   -8.9354    2.0969   -4.1341 Q=   -0.8200 A=    0.0000 R=    0.0000 C=    0.0000
 XYZ=   -9.3832    1.9346   -3.2548 Q=    0.4100 A=    0.0000 R=    0.0000 C=    0.0000
 XYZ=   -9.5077    1.7371   -4.8710 Q=    0.4100 A=    0.0000 R=    0.0000 C=    0.0000
 XYZ=    1.0720    8.9514    4.6056 Q=   -0.8200 A=    0.0000 R=    0.0000 C=    0.0000
 XYZ=    1.8608    8.4136    4.9031 Q=    0.4100 A=    0.0000 R=    0.0000 C=    0.0000
 XYZ=    0.2524    8.6322    5.0816 Q=    0.4100 A=    0.0000 R=    0.0000 C=    0.0000
 XYZ=    8.9538   -1.0961   -1.8094 Q=   -0.8200 A=    0.0000 R=    0.0000 C=    0.0000
 XYZ=    8.5605   -0.2092   -1.5668 Q=    0.4100 A=    0.0000 R=    0.0000 C=    0.0000
 XYZ=    9.5624   -1.4022   -1.0773 Q=    0.4100 A=    0.0000 R=    0.0000 C=    0.0000
 XYZ=   -6.9767    7.8037    1.3968 Q=   -0.8200 A=    0.0000 R=    0.0000 C=    0.0000
 XYZ=   -6.8160    6.9335    1.8627 Q=    0.4100 A=    0.0000 R=    0.0000 C=    0.0000
 XYZ=   -7.4626    8.4257    2.0109 Q=    0.4100 A=    0.0000 R=    0.0000 C=    0.0000
 XYZ=    6.9391   -1.4147    6.4083 Q=   -0.8200 A=    0.0000 R=    0.0000 C=    0.0000
 XYZ=    7.1831   -0.9156    7.2398 Q=    0.4100 A=    0.0000 R=    0.0000 C=    0.0000
 XYZ=    7.7078   -1.9889    6.1266 Q=    0.4100 A=    0.0000 R=    0.0000 C=    0.0000
 XYZ=    8.2099   -5.2710   -1.2190 Q=   -0.8200 A=    0.0000 R=    0.0000 C=    0.0000
 XYZ=    9.1565   -5.2366   -1.5395 Q=    0.4100 A=    0.0000 R=    0.0000 C=    0.0000
 XYZ=    7.6279   -5.6495   -1.9389 Q=    0.4100 A=    0.0000 R=    0.0000 C=    0.0000
 XYZ=   -0.7628    1.9528    9.2780 Q=   -0.8200 A=    0.0000 R=    0.0000 C=    0.0000
 XYZ=   -1.4208    1.2081    9.1668 Q=    0.4100 A=    0.0000 R=    0.0000 C=    0.0000
 XYZ=   -0.5536    2.0706   10.2488 Q=    0.4100 A=    0.0000 R=    0.0000 C=    0.0000
 XYZ=   -9.3896    4.4121   -1.5004 Q=   -0.8200 A=    0.0000 R=    0.0000 C=    0.0000
 XYZ=   -8.5502    4.6691   -1.9793 Q=    0.4100 A=    0.0000 R=    0.0000 C=    0.0000
 XYZ=   -9.8876    5.2375   -1.2344 Q=    0.4100 A=    0.0000 R=    0.0000 C=    0.0000
 XYZ=    2.8056    2.5690   10.0225 Q=   -0.8200 A=    0.0000 R=    0.0000 C=    0.0000
 XYZ=    3.7567    2.7568    9.7772 Q=    0.4100 A=    0.0000 R=    0.0000 C=    0.0000
 XYZ=    2.3285    2.1806    9.2342 Q=    0.4100 A=    0.0000 R=    0.0000 C=    0.0000
 XYZ=    8.7049   -5.4809    1.1221 Q=   -0.8200 A=    0.0000 R=    0.0000 C=    0.0000
 XYZ=    8.0361   -5.0690    1.7410 Q=    0.4100 A=    0.0000 R=    0.0000 C=    0.0000
 XYZ=    8.4087   -5.3494    0.1760 Q=    0.4100 A=    0.0000 R=    0.0000 C=    0.0000
 XYZ=    0.8835   -4.6670    8.7452 Q=   -0.8200 A=    0.0000 R=    0.0000 C=    0.0000
 XYZ=    1.3327   -4.7245    7.8536 Q=    0.4100 A=    0.0000 R=    0.0000 C=    0.0000
 XYZ=    1.4133   -5.1819    9.4191 Q=    0.4100 A=    0.0000 R=    0.0000 C=    0.0000
 XYZ=   -7.4259    5.0746    5.0132 Q=   -0.8200 A=    0.0000 R=    0.0000 C=    0.0000
 XYZ=   -6.9069    4.2573    5.2638 Q=    0.4100 A=    0.0000 R=    0.0000 C=    0.0000
 XYZ=   -6.9929    5.8809    5.4163 Q=    0.4100 A=    0.0000 R=    0.0000 C=    0.0000
 XYZ=   -1.6460   -6.1325  -10.0566 Q=   -0.8200 A=    0.0000 R=    0.0000 C=    0.0000
 XYZ=   -1.4569   -5.3590  -10.6616 Q=    0.4100 A=    0.0000 R=    0.0000 C=    0.0000
 XYZ=   -1.2922   -5.9348   -9.1424 Q=    0.4100 A=    0.0000 R=    0.0000 C=    0.0000
 XYZ=   -2.1125  -10.2220    2.6248 Q=   -0.8200 A=    0.0000 R=    0.0000 C=    0.0000
 XYZ=   -1.1884  -10.0995    2.9869 Q=    0.4100 A=    0.0000 R=    0.0000 C=    0.0000
 XYZ=   -2.2866   -9.5372    1.9171 Q=    0.4100 A=    0.0000 R=    0.0000 C=    0.0000
 XYZ=    1.2296   -0.8668  -10.3269 Q=   -0.8200 A=    0.0000 R=    0.0000 C=    0.0000
 XYZ=    1.7186   -1.6094  -10.7846 Q=    0.4100 A=    0.0000 R=    0.0000 C=    0.0000
 XYZ=    0.2921   -1.1552  -10.1324 Q=    0.4100 A=    0.0000 R=    0.0000 C=    0.0000
 XYZ=   -6.3390   -3.5555    4.8822 Q=   -0.8200 A=    0.0000 R=    0.0000 C=    0.0000
 XYZ=   -7.1844   -3.0748    4.6495 Q=    0.4100 A=    0.0000 R=    0.0000 C=    0.0000
 XYZ=   -5.7961   -2.9925    5.5054 Q=    0.4100 A=    0.0000 R=    0.0000 C=    0.0000
 XYZ=   -1.4163   -7.1279    6.2381 Q=   -0.8200 A=    0.0000 R=    0.0000 C=    0.0000
 XYZ=   -1.0272   -6.7189    7.0636 Q=    0.4100 A=    0.0000 R=    0.0000 C=    0.0000
 XYZ=   -2.3125   -7.5178    6.4500 Q=    0.4100 A=    0.0000 R=    0.0000 C=    0.0000
 XYZ=   -4.9223   -7.2937   -7.9721 Q=   -0.8200 A=    0.0000 R=    0.0000 C=    0.0000
 XYZ=   -4.0391   -7.5723   -8.3495 Q=    0.4100 A=    0.0000 R=    0.0000 C=    0.0000
 XYZ=   -4.8594   -7.2488   -6.9750 Q=    0.4100 A=    0.0000 R=    0.0000 C=    0.0000
 XYZ=    1.5806   11.1288   -0.6845 Q=   -0.8200 A=    0.0000 R=    0.0000 C=    0.0000
 XYZ=    2.5674   11.2660   -0.7711 Q=    0.4100 A=    0.0000 R=    0.0000 C=    0.0000
 XYZ=    1.3365   10.2282   -1.0443 Q=    0.4100 A=    0.0000 R=    0.0000 C=    0.0000
 XYZ=    9.3405    2.4058    4.8905 Q=   -0.8200 A=    0.0000 R=    0.0000 C=    0.0000
 XYZ=    8.6748    1.6942    4.6662 Q=    0.4100 A=    0.0000 R=    0.0000 C=    0.0000
 XYZ=   10.1480    1.9876    5.3066 Q=    0.4100 A=    0.0000 R=    0.0000 C=    0.0000
 XYZ=    6.4004    1.5504    7.7783 Q=   -0.8200 A=    0.0000 R=    0.0000 C=    0.0000
 XYZ=    7.0865    2.1694    7.3960 Q=    0.4100 A=    0.0000 R=    0.0000 C=    0.0000
 XYZ=    5.9461    1.9932    8.5514 Q=    0.4100 A=    0.0000 R=    0.0000 C=    0.0000
 XYZ=    7.8638   -7.5969    1.9204 Q=   -0.8200 A=    0.0000 R=    0.0000 C=    0.0000
 XYZ=    8.4271   -6.8561    1.5546 Q=    0.4100 A=    0.0000 R=    0.0000 C=    0.0000
 XYZ=    6.9099   -7.2999    1.9642 Q=    0.4100 A=    0.0000 R=    0.0000 C=    0.0000
 XYZ=   -4.5409    9.9888   -0.4214 Q=   -0.8200 A=    0.0000 R=    0.0000 C=    0.0000
 XYZ=   -5.0077   10.8026   -0.7678 Q=    0.4100 A=    0.0000 R=    0.0000 C=    0.0000
 XYZ=   -5.1543    9.2014   -0.4824 Q=    0.4100 A=    0.0000 R=    0.0000 C=    0.0000
 XYZ=    9.6774    2.8708   -1.4888 Q=   -0.8200 A=    0.0000 R=    0.0000 C=    0.0000
 XYZ=    8.9616    2.1729   -1.4605 Q=    0.4100 A=    0.0000 R=    0.0000 C=    0.0000
 XYZ=    9.9404    3.1164   -0.5558 Q=    0.4100 A=    0.0000 R=    0.0000 C=    0.0000
 XYZ=    3.8639    1.1889   -8.5086 Q=   -0.8200 A=    0.0000 R=    0.0000 C=    0.0000
 XYZ=    4.8614    1.2212   -8.4453 Q=    0.4100 A=    0.0000 R=    0.0000 C=    0.0000
 XYZ=    3.5974    0.9121   -9.4319 Q=    0.4100 A=    0.0000 R=    0.0000 C=    0.0000
 XYZ=   -6.0963   -8.5130    1.4845 Q=   -0.8200 A=    0.0000 R=    0.0000 C=    0.0000
 XYZ=   -6.5664   -7.6309    1.4569 Q=    0.4100 A=    0.0000 R=    0.0000 C=    0.0000
 XYZ=   -5.9064   -8.7599    2.4348 Q=    0.4100 A=    0.0000 R=    0.0000 C=    0.0000
 XYZ=   -8.0535   -6.2408   -3.5743 Q=   -0.8200 A=    0.0000 R=    0.0000 C=    0.0000
 XYZ=   -8.5864   -5.4622   -3.2429 Q=    0.4100 A=    0.0000 R=    0.0000 C=    0.0000
 XYZ=   -8.3459   -7.0710   -3.0996 Q=    0.4100 A=    0.0000 R=    0.0000 C=    0.0000
 XYZ=   -2.1760    2.5273  -10.9339 Q=   -0.8200 A=    0.0000 R=    0.0000 C=    0.0000
 XYZ=   -1.8985    2.3022   -9.9999 Q=    0.4100 A=    0.0000 R=    0.0000 C=    0.0000
 XYZ=   -2.3825    1.6852  -11.4323 Q=    0.4100 A=    0.0000 R=    0.0000 C=    0.0000
 XYZ=    1.6518   11.1946    1.5749 Q=   -0.8200 A=    0.0000 R=    0.0000 C=    0.0000
 XYZ=    1.2087   10.3808    1.9508 Q=    0.4100 A=    0.0000 R=    0.0000 C=    0.0000
 XYZ=    1.5047   11.2275    0.5863 Q=    0.4100 A=    0.0000 R=    0.0000 C=    0.0000
 XYZ=   -9.9062    2.2954   -2.0738 Q=   -0.8200 A=    0.0000 R=    0.0000 C=    0.0000
 XYZ=  -10.8985    2.1921   -2.0045 Q=    0.4100 A=    0.0000 R=    0.0000 C=    0.0000
 XYZ=   -9.6653    3.2626   -1.9924 Q=    0.4100 A=    0.0000 R=    0.0000 C=    0.0000
 XYZ=    2.6588   -5.7331   -8.9435 Q=   -0.8200 A=    0.0000 R=    0.0000 C=    0.0000
 XYZ=    2.2895   -6.5843   -8.5705 Q=    0.4100 A=    0.0000 R=    0.0000 C=    0.0000
 XYZ=    3.5988   -5.6099   -8.6253 Q=    0.4100 A=    0.0000 R=    0.0000 C=    0.0000
 XYZ=   -8.2484   -2.1913    4.6056 Q=   -0.8200 A=    0.0000 R=    0.0000 C=    0.0000
 XYZ=   -8.1384   -2.0578    3.6206 Q=    0.4100 A=    0.0000 R=    0.0000 C=    0.0000
 XYZ=   -9.0535   -2.7591    4.7770 Q=    0.4100 A=    0.0000 R=    0.0000 C=    0.0000
 XYZ=   -0.5884  -10.8276   -4.5608 Q=   -0.8200 A=    0.0000 R=    0.0000 C=    0.0000
 XYZ=   -0.0833  -10.5398   -3.7471 Q=    0.4100 A=    0.0000 R=    0.0000 C=    0.0000
 XYZ=   -0.5195  -10.1195   -5.2636 Q=    0.4100 A=    0.0000 R=    0.0000 C=    0.0000
 XYZ=   -6.3952    8.5594   -0.7179 Q=   -0.8200 A=    0.0000 R=    0.0000 C=    0.0000
 XYZ=   -6.9334    9.3800   -0.9103 Q=    0.4100 A=    0.0000 R=    0.0000 C=    0.0000
 XYZ=   -6.6048    8.2317    0.2034 Q=    0.4100 A=    0.0000 R=    0.0000 C=    0.0000
 XYZ=    2.1241   -7.8883   -8.1536 Q=   -0.8200 A=    0.0000 R=    0.0000 C=    0.0000
 XYZ=    1.5427   -8.3050   -7.4547 Q=    0.4100 A=    0.0000 R=    0.0000 C=    0.0000
 XYZ=    3.0784   -7.9218   -7.8566 Q=    0.4100 A=    0.0000 R=    0.0000 C=    0.0000
 XYZ=    1.1175   -4.3798  -10.4081 Q=   -0.8200 A=    0.0000 R=    0.0000 C=    0.0000
 XYZ=    1.6460   -3.5812  -10.6964 Q=    0.4100 A=    0.0000 R=    0.0000 C=    0.0000
 XYZ=    1.6356   -4.8927   -9.7235 Q=    0.4100 A=    0.0000 R=    0.0000 C=    0.0000
 XYZ=   -9.3422    4.4790   -4.6432 Q=   -0.8200 A=    0.0000 R=    0.0000 C=    0.0000
 XYZ=   -8.6350    4.7896   -4.0080 Q=    0.4100 A=    0.0000 R=    0.0000 C=    0.0000
 XYZ=   -9.3234    3.4808   -4.7007 Q=    0.4100 A=    0.0000 R=    0.0000 C=    0.0000
 XYZ=   -5.2022   -5.1658   -8.5978 Q=   -0.8200 A=    0.0000 R=    0.0000 C=    0.0000
 XYZ=   -4.4614   -5.0185   -9.2532 Q=    0.4100 A=    0.0000 R=    0.0000 C=    0.0000
 XYZ=   -5.1597   -6.1031   -8.2518 Q=    0.4100 A=    0.0000 R=    0.0000 C=    0.0000
 XYZ=   -1.4565    9.9206   -4.7873 Q=   -0.8200 A=    0.0000 R=    0.0000 C=    0.0000
 XYZ=   -2.0967    9.3489   -4.2740 Q=    0.4100 A=    0.0000 R=    0.0000 C=    0.0000
 XYZ=   -1.4479   10.8422   -4.3992 Q=    0.4100 A=    0.0000 R=    0.0000 C=    0.0000
 XYZ=    6.5198   -8.1607   -1.8287 Q=   -0.8200 A=    0.0000 R=    0.0000 C=    0.0000
 XYZ=    7.1738   -8.5904   -1.2061 Q=    0.4100 A=    0.0000 R=    0.0000 C=    0.0000
 XYZ=    7.0037   -7.5345   -2.4401 Q=    0.4100 A=    0.0000 R=    0.0000 C=    0.0000
 XYZ=   -2.4055  -10.9932   -1.9499 Q=   -0.8200 A=    0.0000 R=    0.0000 C=    0.0000
 XYZ=   -2.4868  -11.5860   -2.7512 Q=    0.4100 A=    0.0000 R=    0.0000 C=    0.0000
 XYZ=   -3.2746  -10.5242   -1.7928 Q=    0.4100 A=    0.0000 R=    0.0000 C=    0.0000
 XYZ=    7.8174    7.0416    0.6416 Q=   -0.8200 A=    0.0000 R=    0.0000 C=    0.0000
 XYZ=    8.1552    7.8861    1.0574 Q=    0.4100 A=    0.0000 R=    0.0000 C=    0.0000
 XYZ=    7.5334    6.4068    1.3602 Q=    0.4100 A=    0.0000 R=    0.0000 C=    0.0000
 XYZ=   -8.4334    3.2587   -7.3150 Q=   -0.8200 A=    0.0000 R=    0.0000 C=    0.0000
 XYZ=   -8.6578    4.0202   -6.7068 Q=    0.4100 A=    0.0000 R=    0.0000 C=    0.0000
 XYZ=   -7.4421    3.2117   -7.4382 Q=    0.4100 A=    0.0000 R=    0.0000 C=    0.0000
 XYZ=    7.5457   -0.4923   -5.6812 Q=   -0.8200 A=    0.0000 R=    0.0000 C=    0.0000
 XYZ=    7.9224    0.3932   -5.4090 Q=    0.4100 A=    0.0000 R=    0.0000 C=    0.0000
 XYZ=    8.2150   -1.2112   -5.4935 Q=    0.4100 A=    0.0000 R=    0.0000 C=    0.0000
 XYZ=    5.0142   -5.5012   -8.3450 Q=   -0.8200 A=    0.0000 R=    0.0000 C=    0.0000
 XYZ=    5.6214   -5.5944   -9.1341 Q=    0.4100 A=    0.0000 R=    0.0000 C=    0.0000
 XYZ=    5.4417   -4.9069   -7.6638 Q=    0.4100 A=    0.0000 R=    0.0000 C=    0.0000
 XYZ=  -11.2311   -0.4337   -2.0162 Q=   -0.8200 A=    0.0000 R=    0.0000 C=    0.0000
 XYZ=  -11.3683    0.5568   -2.0197 Q=    0.4100 A=    0.0000 R=    0.0000 C=    0.0000
 XYZ=  -10.2953   -0.6395   -1.7298 Q=    0.4100 A=    0.0000 R=    0.0000 C=    0.0000
 XYZ=   -9.5733    3.4523    1.0476 Q=   -0.8200 A=    0.0000 R=    0.0000 C=    0.0000
 XYZ=   -9.7510    3.3963    0.0651 Q=    0.4100 A=    0.0000 R=    0.0000 C=    0.0000
 XYZ=   -9.8700    2.6053    1.4888 Q=    0.4100 A=    0.0000 R=    0.0000 C=    0.0000
 XYZ=    6.5320    4.6552    6.7798 Q=   -0.8200 A=    0.0000 R=    0.0000 C=    0.0000
 XYZ=    7.0704    5.4965    6.8287 Q=    0.4100 A=    0.0000 R=    0.0000 C=    0.0000
 XYZ=    7.1471    3.8681    6.7340 Q=    0.4100 A=    0.0000 R=    0.0000 C=    0.0000
 XYZ=   -0.1563   -2.9482    9.9755 Q=   -0.8200 A=    0.0000 R=    0.0000 C=    0.0000
 XYZ=    0.4110   -3.5188    9.3816 Q=    0.4100 A=    0.0000 R=    0.0000 C=    0.0000
 XYZ=   -0.5837   -3.5188   10.6767 Q=    0.4100 A=    0.0000 R=    0.0000 C=    0.0000
 XYZ=    6.4935    4.2326   -5.2058 Q=   -0.8200 A=    0.0000 R=    0.0000 C=    0.0000
 XYZ=    6.9402    5.1074   -5.3935 Q=    0.4100 A=    0.0000 R=    0.0000 C=    0.0000
 XYZ=    6.7656    3.5641   -5.8980 Q=    0.4100 A=    0.0000 R=    0.0000 C=    0.0000
 XYZ=   -7.0274   -0.7758    6.4300 Q=   -0.8200 A=    0.0000 R=    0.0000 C=    0.0000
 XYZ=   -7.6133   -1.3402    5.8483 Q=    0.4100 A=    0.0000 R=    0.0000 C=    0.0000
 XYZ=   -6.2605   -1.3246    6.7629 Q=    0.4100 A=    0.0000 R=    0.0000 C=    0.0000
 XYZ=   -3.2664   10.8467    1.2233 Q=   -0.8200 A=    0.0000 R=    0.0000 C=    0.0000
 XYZ=   -3.8822   11.1634    1.9448 Q=    0.4100 A=    0.0000 R=    0.0000 C=    0.0000
 XYZ=   -3.7979   10.3994    0.5040 Q=    0.4100 A=    0.0000 R=    0.0000 C=    0.0000
 XYZ=   -5.1179    4.9538    8.6137 Q=   -0.8200 A=    0.0000 R=    0.0000 C=    0.0000
 XYZ=   -5.6650    5.7883    8.5481 Q=    0.4100 A=    0.0000 R=    0.0000 C=    0.0000
 XYZ=   -4.3001    5.0460    8.0455 Q=    0.4100 A=    0.0000 R=    0.0000 C=    0.0000
 XYZ=   -6.4331    0.6148   -9.0909 Q=   -0.8200 A=    0.0000 R=    0.0000 C=    0.0000
 XYZ=   -7.2706    1.1514   -9.1946 Q=    0.4100 A=    0.0000 R=    0.0000 C=    0.0000
 XYZ=   -6.6693   -0.3374   -8.8968 Q=    0.4100 A=    0.0000 R=    0.0000 C=    0.0000
 XYZ=    8.3398    4.7024   -2.1077 Q=   -0.8200 A=    0.0000 R=    0.0000 C=    0.0000
 XYZ=    8.9870    4.0027   -1.8050 Q=    0.4100 A=    0.0000 R=    0.0000 C=    0.0000
 XYZ=    8.5786    5.5797   -1.6913 Q=    0.4100 A=    0.0000 R=    0.0000 C=    0.0000
 XYZ=    0.4093  -11.0090    0.6845 Q=   -0.8200 A=    0.0000 R=    0.0000 C=    0.0000
 XYZ=    1.3016  -11.3842    0.4335 Q=    0.4100 A=    0.0000 R=    0.0000 C=    0.0000
 XYZ=   -0.2985  -11.6973    0.5251 Q=    0.4100 A=    0.0000 R=    0.0000 C=    0.0000
 XYZ=   -2.1072    5.2341    9.8948 Q=   -0.8200 A=    0.0000 R=    0.0000 C=    0.0000
 XYZ=   -2.3478    6.1383    9.5417 Q=    0.4100 A=    0.0000 R=    0.0000 C=    0.0000
 XYZ=   -1.8075    4.6505    9.1401 Q=    0.4100 A=    0.0000 R=    0.0000 C=    0.0000
 XYZ=   -2.7583   -7.8494   -8.6346 Q=   -0.8200 A=    0.0000 R=    0.0000 C=    0.0000
 XYZ=   -2.2843   -7.1747   -9.2005 Q=    0.4100 A=    0.0000 R=    0.0000 C=    0.0000
 XYZ=   -2.3567   -8.7526   -8.7863 Q=    0.4100 A=    0.0000 R=    0.0000 C=    0.0000
 XYZ=    7.6100   -0.2491    8.3834 Q=   -0.8200 A=    0.0000 R=    0.0000 C=    0.0000
 XYZ=    7.0839    0.5443    8.0772 Q=    0.4100 A=    0.0000 R=    0.0000 C=    0.0000
 XYZ=    8.4891    0.0554    8.7503 Q=    0.4100 A=    0.0000 R=    0.0000 C=    0.0000
 XYZ=    2.9271    0.7547  -10.6258 Q=   -0.8200 A=    0.0000 R=    0.0000 C=    0.0000
 XYZ=    2.4183    1.6147  -10.5862 Q=    0.4100 A=    0.0000 R=    0.0000 C=    0.0000
 XYZ=    2.3259   -0.0005  -10.3644 Q=    0.4100 A=    0.0000 R=    0.0000 C=    0.0000
 XYZ=   -2.7515    7.2839    8.8010 Q=   -0.8200 A=    0.0000 R=    0.0000 C=    0.0000
 XYZ=   -2.9520    6.6933    8.0193 Q=    0.4100 A=    0.0000 R=    0.0000 C=    0.0000
 XYZ=   -3.6043    7.6652    9.1579 Q=    0.4100 A=    0.0000 R=    0.0000 C=    0.0000
 XYZ=    2.1448    2.9637  -10.6683 Q=   -0.8200 A=    0.0000 R=    0.0000 C=    0.0000
 XYZ=    2.3216    3.0757   -9.6904 Q=    0.4100 A=    0.0000 R=    0.0000 C=    0.0000
 XYZ=    2.0420    3.8630  -11.0935 Q=    0.4100 A=    0.0000 R=    0.0000 C=    0.0000
 XYZ=    8.4442    1.6959   -5.1691 Q=   -0.8200 A=    0.0000 R=    0.0000 C=    0.0000
 XYZ=    8.0863    2.3199   -4.4744 Q=    0.4100 A=    0.0000 R=    0.0000 C=    0.0000
 XYZ=    9.3476    1.3698   -4.8906 Q=    0.4100 A=    0.0000 R=    0.0000 C=    0.0000
 XYZ=   -1.1236   -5.9811    8.2971 Q=   -0.8200 A=    0.0000 R=    0.0000 C=    0.0000
 XYZ=   -0.4023   -5.3235    8.5149 Q=    0.4100 A=    0.0000 R=    0.0000 C=    0.0000
 XYZ=   -1.9823   -5.4936    8.1393 Q=    0.4100 A=    0.0000 R=    0.0000 C=    0.0000
 XYZ=   -7.0046   -5.6703    5.4811 Q=   -0.8200 A=    0.0000 R=    0.0000 C=    0.0000
 XYZ=   -7.6273   -6.0556    4.8000 Q=    0.4100 A=    0.0000 R=    0.0000 C=    0.0000
 XYZ=   -6.6629   -4.7875    5.1586 Q=    0.4100 A=    0.0000 R=    0.0000 C=    0.0000
 XYZ=    7.0546   -0.7178   -8.0883 Q=   -0.8200 A=    0.0000 R=    0.0000 C=    0.0000
 XYZ=    7.3025   -0.6204   -7.1244 Q=    0.4100 A=    0.0000 R=    0.0000 C=    0.0000
 XYZ=    6.1676   -1.1740   -8.1598 Q=    0.4100 A=    0.0000 R=    0.0000 C=    0.0000
 XYZ=   -6.2416    6.8224    5.9271 Q=   -0.8200 A=    0.0000 R=    0.0000 C=    0.0000
 XYZ=   -6.0385    7.7562    5.6324 Q=    0.4100 A=    0.0000 R=    0.0000 C=    0.0000
 XYZ=   -6.3484    6.8026    6.9212 Q=    0.4100 A=    0.0000 R=    0.0000 C=    0.0000
 XYZ=   -3.5862   -4.6068  -10.2718 Q=   -0.8200 A=    0.0000 R=    0.0000 C=    0.0000
 XYZ=   -2.9601   -5.3863  -10.2509 Q=    0.4100 A=    0.0000 R=    0.0000 C=    0.0000
 XYZ=   -3.4158   -4.0644  -11.0945 Q=    0.4100 A=    0.0000 R=    0.0000 C=    0.0000
 XYZ=   10.4678    3.4648    0.9162 Q=   -0.8200 A=    0.0000 R=    0.0000 C=    0.0000
 XYZ=    9.7868    3.4056    1.6461 Q=    0.4100 A=    0.0000 R=    0.0000 C=    0.0000
 XYZ=   11.1970    4.0916    1.1908 Q=    0.4100 A=    0.0000 R=    0.0000 C=    0.0000
 XYZ=   -3.7067   -7.7722    6.4942 Q=   -0.8200 A=    0.0000 R=    0.0000 C=    0.0000
 XYZ=   -4.2663   -7.4889    5.7153 Q=    0.4100 A=    0.0000 R=    0.0000 C=    0.0000
 XYZ=   -4.1417   -7.4730    7.3435 Q=    0.4100 A=    0.0000 R=    0.0000 C=    0.0000
 XYZ=    4.8618   -2.4917  -10.3471 Q=   -0.8200 A=    0.0000 R=    0.0000 C=    0.0000
 XYZ=    4.9251   -2.3216   -9.3637 Q=    0.4100 A=    0.0000 R=    0.0000 C=    0.0000
 XYZ=    5.7568   -2.7703  -10.6954 Q=    0.4100 A=    0.0000 R=    0.0000 C=    0.0000
 XYZ=   10.5524   -1.6817    0.1652 Q=   -0.8200 A=    0.0000 R=    0.0000 C=    0.0000
 XYZ=   10.3877   -2.6513    0.3464 Q=    0.4100 A=    0.0000 R=    0.0000 C=    0.0000
 XYZ=   10.1531   -1.1329    0.8998 Q=    0.4100 A=    0.0000 R=    0.0000 C=    0.0000
 XYZ=   -2.0093    0.0385  -11.5151 Q=   -0.8200 A=    0.0000 R=    0.0000 C=    0.0000
 XYZ=   -1.5336   -0.7094  -11.0522 Q=    0.4100 A=    0.0000 R=    0.0000 C=    0.0000
 XYZ=   -2.9818   -0.1817  -11.5913 Q=    0.4100 A=    0.0000 R=    0.0000 C=    0.0000
 XYZ=    0.5065    5.1796  -10.6435 Q=   -0.8200 A=    0.0000 R=    0.0000 C=    0.0000
 XYZ=   -0.0732    4.7164  -11.3140 Q=    0.4100 A=    0.0000 R=    0.0000 C=    0.0000
 XYZ=    0.3556    4.7795   -9.7395 Q=    0.4100 A=    0.0000 R=    0.0000 C=    0.0000
 XYZ=   11.0182    1.1399    0.8879 Q=   -0.8200 A=    0.0000 R=    0.0000 C=    0.0000
 XYZ=   10.3023    0.5900    1.3182 Q=    0.4100 A=    0.0000 R=    0.0000 C=    0.0000
 XYZ=   10.7277    2.0961    0.8521 Q=    0.4100 A=    0.0000 R=    0.0000 C=    0.0000
 XYZ=    9.0005   -2.1923   -5.1628 Q=   -0.8200 A=    0.0000 R=    0.0000 C=    0.0000
 XYZ=    9.6097   -2.0571   -4.3814 Q=    0.4100 A=    0.0000 R=    0.0000 C=    0.0000
 XYZ=    8.5814   -3.0985   -5.1057 Q=    0.4100 A=    0.0000 R=    0.0000 C=    0.0000
 XYZ=   -0.9759   -4.1968  -11.3706 Q=   -0.8200 A=    0.0000 R=    0.0000 C=    0.0000
 XYZ=   -0.0922   -4.3074  -10.9156 Q=    0.4100 A=    0.0000 R=    0.0000 C=    0.0000
 XYZ=   -0.8318   -4.0708  -12.3522 Q=    0.4100 A=    0.0000 R=    0.0000 C=    0.0000
 XYZ=    8.0827    2.9692    6.9272 Q=   -0.8200 A=    0.0000 R=    0.0000 C=    0.0000
 XYZ=    8.6453    2.7013    6.1451 Q=    0.4100 A=    0.0000 R=    0.0000 C=    0.0000
 XYZ=    8.6109    2.8631    7.7697 Q=    0.4100 A=    0.0000 R=    0.0000 C=    0.0000
 XYZ=    0.7388   10.6466    6.1394 Q=   -0.8200 A=    0.0000 R=    0.0000 C=    0.0000
 XYZ=    0.7813    9.9353    5.4378 Q=    0.4100 A=    0.0000 R=    0.0000 C=    0.0000
 XYZ=    1.3333   11.4074    5.8790 Q=    0.4100 A=    0.0000 R=    0.0000 C=    0.0000
 XYZ=   10.5319   -1.5960   -3.2653 Q=   -0.8200 A=    0.0000 R=    0.0000 C=    0.0000
 XYZ=    9.7839   -1.3798   -2.6377 Q=    0.4100 A=    0.0000 R=    0.0000 C=    0.0000
 XYZ=   11.3386   -1.8689   -2.7410 Q=    0.4100 A=    0.0000 R=    0.0000 C=    0.0000
 XYZ=   -6.0600    2.8501    8.0727 Q=   -0.8200 A=    0.0000 R=    0.0000 C=    0.0000
 XYZ=   -6.5072    2.3958    8.8432 Q=    0.4100 A=    0.0000 R=    0.0000 C=    0.0000
 XYZ=   -5.9412    3.8208    8.2816 Q=    0.4100 A=    0.0000 R=    0.0000 C=    0.0000
 XYZ=    5.4882    5.1198    9.1166 Q=   -0.8200 A=    0.0000 R=    0.0000 C=    0.0000
 XYZ=    6.2840    5.5860    9.5032 Q=    0.4100 A=    0.0000 R=    0.0000 C=    0.0000
 XYZ=    5.6192    4.9971    8.1328 Q=    0.4100 A=    0.0000 R=    0.0000 C=    0.0000
 XYZ=   10.3673   -3.9208    0.4574 Q=   -0.8200 A=    0.0000 R=    0.0000 C=    0.0000
 XYZ=    9.6734   -4.5290    0.8430 Q=    0.4100 A=    0.0000 R=    0.0000 C=    0.0000
 XYZ=   11.1720   -4.4552    0.1984 Q=    0.4100 A=    0.0000 R=    0.0000 C=    0.0000
 XYZ=   -5.2044    4.7353   -9.1869 Q=   -0.8200 A=    0.0000 R=    0.0000 C=    0.0000
 XYZ=   -5.4889    5.6058   -9.5887 Q=    0.4100 A=    0.0000 R=    0.0000 C=    0.0000
 XYZ=   -5.0052    4.0808   -9.9162 Q=    0.4100 A=    0.0000 R=    0.0000 C=    0.0000
 XYZ=   -6.4149   -3.6949  -10.1234 Q=   -0.8200 A=    0.0000 R=    0.0000 C=    0.0000
 XYZ=   -6.0343   -4.2394   -9.3760 Q=    0.4100 A=    0.0000 R=    0.0000 C=    0.0000
 XYZ=   -6.7937   -4.3040  -10.8202 Q=    0.4100 A=    0.0000 R=    0.0000 C=    0.0000
 XYZ=   -6.9990   -1.7501   -8.9825 Q=   -0.8200 A=    0.0000 R=    0.0000 C=    0.0000
 XYZ=   -7.9474   -1.5974   -9.2606 Q=    0.4100 A=    0.0000 R=    0.0000 C=    0.0000
 XYZ=   -6.6417   -2.5602   -9.4475 Q=    0.4100 A=    0.0000 R=    0.0000 C=    0.0000
 XYZ=    1.9747    4.8837    9.9853 Q=   -0.8200 A=    0.0000 R=    0.0000 C=    0.0000
 XYZ=    1.1243    5.0402   10.4877 Q=    0.4100 A=    0.0000 R=    0.0000 C=    0.0000
 XYZ=    2.2829    3.9444   10.1363 Q=    0.4100 A=    0.0000 R=    0.0000 C=    0.0000
 XYZ=    0.9566   -1.3946   11.6160 Q=   -0.8200 A=    0.0000 R=    0.0000 C=    0.0000
 XYZ=    0.7047   -1.6550   10.6839 Q=    0.4100 A=    0.0000 R=    0.0000 C=    0.0000
 XYZ=    0.1960   -0.9048   12.0423 Q=    0.4100 A=    0.0000 R=    0.0000 C=    0.0000
 XYZ=   -7.6444    1.1065    7.7786 Q=   -0.8200 A=    0.0000 R=    0.0000 C=    0.0000
 XYZ=   -7.4276    0.1903    7.4417 Q=    0.4100 A=    0.0000 R=    0.0000 C=    0.0000
 XYZ=   -6.8398    1.6936    7.6891 Q=    0.4100 A=    0.0000 R=    0.0000 C=    0.0000
 XYZ=   -8.3983   -6.4434    3.8138 Q=   -0.8200 A=    0.0000 R=    0.0000 C=    0.0000
 XYZ=   -8.0791   -6.3877    2.8677 Q=    0.4100 A=    0.0000 R=    0.0000 C=    0.0000
 XYZ=   -8.9853   -7.2459    3.9208 Q=    0.4100 A=    0.0000 R=    0.0000 C=    0.0000
 XYZ=   -5.9090    9.0752    5.2012 Q=   -0.8200 A=    0.0000 R=    0.0000 C=    0.0000
 XYZ=   -6.3973    9.9127    5.4462 Q=    0.4100 A=    0.0000 R=    0.0000 C=    0.0000
 XYZ=   -4.9522    9.2918    5.0072 Q=    0.4100 A=    0.0000 R=    0.0000 C=    0.0000
 XYZ=  -11.3882   -2.3341    1.2007 Q=   -0.8200 A=    0.0000 R=    0.0000 C=    0.0000
 XYZ=  -10.6287   -1.6883    1.1230 Q=    0.4100 A=    0.0000 R=    0.0000 C=    0.0000
 XYZ=  -11.0505   -3.2042    1.5599 Q=    0.4100 A=    0.0000 R=    0.0000 C=    0.0000
 XYZ=    8.3574   -8.6938   -0.2706 Q=   -0.8200 A=    0.0000 R=    0.0000 C=    0.0000
 XYZ=    7.8176   -8.3695    0.5063 Q=    0.4100 A=    0.0000 R=    0.0000 C=    0.0000
 XYZ=    9.0788   -9.3042    0.0565 Q=    0.4100 A=    0.0000 R=    0.0000 C=    0.0000
 XYZ=   -8.7465   -7.5248   -0.4989 Q=   -0.8200 A=    0.0000 R=    0.0000 C=    0.0000
 XYZ=   -8.7292   -7.7494   -1.4733 Q=    0.4100 A=    0.0000 R=    0.0000 C=    0.0000
 XYZ=   -9.6566   -7.1943   -0.2491 Q=    0.4100 A=    0.0000 R=    0.0000 C=    0.0000
 XYZ=    4.3620   -7.9169   -7.7948 Q=   -0.8200 A=    0.0000 R=    0.0000 C=    0.0000
 XYZ=    4.7371   -7.2324   -8.4200 Q=    0.4100 A=    0.0000 R=    0.0000 C=    0.0000
 XYZ=    5.0078   -8.6751   -7.7045 Q=    0.4100 A=    0.0000 R=    0.0000 C=    0.0000
 XYZ=   -3.7834   10.1552    4.6518 Q=   -0.8200 A=    0.0000 R=    0.0000 C=    0.0000
 XYZ=   -3.3867   10.7809    5.3236 Q=    0.4100 A=    0.0000 R=    0.0000 C=    0.0000
 XYZ=   -4.2283   10.6822    3.9276 Q=    0.4100 A=    0.0000 R=    0.0000 C=    0.0000
 XYZ=   -1.3563  -12.3267   -0.2682 Q=   -0.8200 A=    0.0000 R=    0.0000 C=    0.0000
 XYZ=   -1.8950  -11.7769   -0.9066 Q=    0.4100 A=    0.0000 R=    0.0000 C=    0.0000
 XYZ=   -1.0592  -13.1675   -0.7209 Q=    0.4100 A=    0.0000 R=    0.0000 C=    0.0000
 XYZ=    5.3178    2.7534    9.7000 Q=   -0.8200 A=    0.0000 R=    0.0000 C=    0.0000
 XYZ=    5.8048    2.5756   10.5552 Q=    0.4100 A=    0.0000 R=    0.0000 C=    0.0000
 XYZ=    5.4898    3.6942    9.4079 Q=    0.4100 A=    0.0000 R=    0.0000 C=    0.0000
 XYZ=   -5.8511   -9.0860    3.7392 Q=   -0.8200 A=    0.0000 R=    0.0000 C=    0.0000
 XYZ=   -5.6563   -8.2216    4.2027 Q=    0.4100 A=    0.0000 R=    0.0000 C=    0.0000
 XYZ=   -5.0579   -9.6905    3.8141 Q=    0.4100 A=    0.0000 R=    0.0000 C=    0.0000
 XYZ=   -4.4331    3.1649  -10.9341 Q=   -0.8200 A=    0.0000 R=    0.0000 C=    0.0000
 XYZ=   -5.0141    2.3643  -11.0810 Q=    0.4100 A=    0.0000 R=    0.0000 C=    0.0000
 XYZ=   -3.4819    2.8727  -10.8350 Q=    0.4100 A=    0.0000 R=    0.0000 C=    0.0000
 XYZ=    2.6243   -2.8392  -11.1765 Q=   -0.8200 A=    0.0000 R=    0.0000 C=    0.0000
 XYZ=    3.5006   -2.8573  -10.6951 Q=    0.4100 A=    0.0000 R=    0.0000 C=    0.0000
 XYZ=    2.7832   -2.6905  -12.1526 Q=    0.4100 A=    0.0000 R=    0.0000 C=    0.0000
 XYZ=    8.6139    7.1024    4.6185 Q=   -0.8200 A=    0.0000 R=    0.0000 C=    0.0000
 XYZ=    9.4173    6.5468    4.8328 Q=    0.4100 A=    0.0000 R=    0.0000 C=    0.0000
 XYZ=    8.1085    6.6811    3.8654 Q=    0.4100 A=    0.0000 R=    0.0000 C=    0.0000
 XYZ=   -4.0801  -10.3934    3.9738 Q=   -0.8200 A=    0.0000 R=    0.0000 C=    0.0000
 XYZ=   -4.6521  -11.1280    3.6088 Q=    0.4100 A=    0.0000 R=    0.0000 C=    0.0000
 XYZ=   -3.2596  -10.2986    3.4100 Q=    0.4100 A=    0.0000 R=    0.0000 C=    0.0000
 XYZ=   -4.5086   10.3650   -5.2028 Q=   -0.8200 A=    0.0000 R=    0.0000 C=    0.0000
 XYZ=   -4.3316    9.8137   -4.3874 Q=    0.4100 A=    0.0000 R=    0.0000 C=    0.0000
 XYZ=   -3.6620   10.4692   -5.7248 Q=    0.4100 A=    0.0000 R=    0.0000 C=    0.0000
 XYZ=   -2.3326  -12.2998   -4.1566 Q=   -0.8200 A=    0.0000 R=    0.0000 C=    0.0000
 XYZ=   -1.7021  -11.5512   -4.3618 Q=    0.4100 A=    0.0000 R=    0.0000 C=    0.0000
 XYZ=   -2.5075  -12.8260   -4.9888 Q=    0.4100 A=    0.0000 R=    0.0000 C=    0.0000
 XYZ=    6.1171    1.4074   -8.3438 Q=   -0.8200 A=    0.0000 R=    0.0000 C=    0.0000
 XYZ=    6.6043    2.1296   -7.8528 Q=    0.4100 A=    0.0000 R=    0.0000 C=    0.0000
 XYZ=    6.6125    0.5443   -8.2446 Q=    0.4100 A=    0.0000 R=    0.0000 C=    0.0000
 XYZ=   -1.8442   12.6049    0.5801 Q=   -0.8200 A=    0.0000 R=    0.0000 C=    0.0000
 XYZ=   -2.3562   11.7738    0.7976 Q=    0.4100 A=    0.0000 R=    0.0000 C=    0.0000
 XYZ=   -2.4734   13.3052    0.2429 Q=    0.4100 A=    0.0000 R=    0.0000 C=    0.0000
 XYZ=    5.9558   -1.4530    9.6282 Q=   -0.8200 A=    0.0000 R=    0.0000 C=    0.0000
 XYZ=    6.7384   -1.0231    9.1779 Q=    0.4100 A=    0.0000 R=    0.0000 C=    0.0000
 XYZ=    6.2586   -2.2762   10.1086 Q=    0.4100 A=    0.0000 R=    0.0000 C=    0.0000
 XYZ=   -9.8454    5.1998    4.7257 Q=   -0.8200 A=    0.0000 R=    0.0000 C=    0.0000
 XYZ=   -9.9434    5.8310    3.9563 Q=    0.4100 A=    0.0000 R=    0.0000 C=    0.0000
 XYZ=   -8.8755    5.0132    4.8822 Q=    0.4100 A=    0.0000 R=    0.0000 C=    0.0000
 XYZ=  -11.1717    1.2912    3.6313 Q=   -0.8200 A=    0.0000 R=    0.0000 C=    0.0000
 XYZ=  -11.1880    2.1605    4.1254 Q=    0.4100 A=    0.0000 R=    0.0000 C=    0.0000
 XYZ=  -10.3258    1.2244    3.1022 Q=    0.4100 A=    0.0000 R=    0.0000 C=    0.0000
 XYZ=   -5.8539    1.1525  -11.2879 Q=   -0.8200 A=    0.0000 R=    0.0000 C=    0.0000
 XYZ=   -6.0684    0.7982  -10.3777 Q=    0.4100 A=    0.0000 R=    0.0000 C=    0.0000
 XYZ=   -6.6497    1.0442  -11.8837 Q=    0.4100 A=    0.0000 R=    0.0000 C=    0.0000
 XYZ=   -3.4030   -5.0108    8.6339 Q=   -0.8200 A=    0.0000 R=    0.0000 C=    0.0000
 XYZ=   -3.9259   -5.7961    8.3024 Q=    0.4100 A=    0.0000 R=    0.0000 C=    0.0000
 XYZ=   -3.5836   -4.8775    9.6084 Q=    0.4100 A=    0.0000 R=    0.0000 C=    0.0000
 XYZ=   -0.0377   12.6774   -0.9680 Q=   -0.8200 A=    0.0000 R=    0.0000 C=    0.0000
 XYZ=    0.6297   11.9587   -0.7731 Q=    0.4100 A=    0.0000 R=    0.0000 C=    0.0000
 XYZ=   -0.8073   12.5983   -0.3344 Q=    0.4100 A=    0.0000 R=    0.0000 C=    0.0000
 XYZ=   -8.1492   -9.4360    0.5312 Q=   -0.8200 A=    0.0000 R=    0.0000 C=    0.0000
 XYZ=   -8.5141   -8.6574    0.0206 Q=    0.4100 A=    0.0000 R=    0.0000 C=    0.0000
 XYZ=   -7.3481   -9.1453    1.0545 Q=    0.4100 A=    0.0000 R=    0.0000 C=    0.0000
 XYZ=   -0.2277  -11.9597   -6.4860 Q=   -0.8200 A=    0.0000 R=    0.0000 C=    0.0000
 XYZ=   -0.0469  -12.8841   -6.1499 Q=    0.4100 A=    0.0000 R=    0.0000 C=    0.0000
 XYZ=   -0.3136  -11.3340   -5.7106 Q=    0.4100 A=    0.0000 R=    0.0000 C=    0.0000
 XYZ=    0.2244    0.1606  -12.4268 Q=   -0.8200 A=    0.0000 R=    0.0000 C=    0.0000
 XYZ=    0.7704    0.0269  -11.5998 Q=    0.4100 A=    0.0000 R=    0.0000 C=    0.0000
 XYZ=   -0.7474    0.1104  -12.1963 Q=    0.4100 A=    0.0000 R=    0.0000 C=    0.0000
 XYZ=    8.6556    6.9804   -1.4863 Q=   -0.8200 A=    0.0000 R=    0.0000 C=    0.0000
 XYZ=    8.2753    7.7603   -1.9834 Q=    0.4100 A=    0.0000 R=    0.0000 C=    0.0000
 XYZ=    8.4292    7.0615   -0.5156 Q=    0.4100 A=    0.0000 R=    0.0000 C=    0.0000
 XYZ=   -8.6346    1.5691   -8.9856 Q=   -0.8200 A=    0.0000 R=    0.0000 C=    0.0000
 XYZ=   -8.8530    1.9793   -9.8711 Q=    0.4100 A=    0.0000 R=    0.0000 C=    0.0000
 XYZ=   -8.7523    2.2515   -8.2641 Q=    0.4100 A=    0.0000 R=    0.0000 C=    0.0000
 XYZ=   -6.9037   -9.7609   -3.9320 Q=   -0.8200 A=    0.0000 R=    0.0000 C=    0.0000
 XYZ=   -6.3664  -10.4609   -3.4615 Q=    0.4100 A=    0.0000 R=    0.0000 C=    0.0000
 XYZ=   -7.4356  -10.1856   -4.6648 Q=    0.4100 A=    0.0000 R=    0.0000 C=    0.0000
 XYZ=   -8.7179   -8.4184   -2.8890 Q=   -0.8200 A=    0.0000 R=    0.0000 C=    0.0000
 XYZ=   -9.5087   -8.6664   -3.4486 Q=    0.4100 A=    0.0000 R=    0.0000 C=    0.0000
 XYZ=   -7.9564   -9.0321   -3.0974 Q=    0.4100 A=    0.0000 R=    0.0000 C=    0.0000
 XYZ=   -7.0070   -7.6270   -8.5455 Q=   -0.8200 A=    0.0000 R=    0.0000 C=    0.0000
 XYZ=   -6.0141   -7.5661   -8.4431 Q=    0.4100 A=    0.0000 R=    0.0000 C=    0.0000
 XYZ=   -7.4155   -6.7308   -8.3723 Q=    0.4100 A=    0.0000 R=    0.0000 C=    0.0000
 XYZ=    2.0679   -6.2380  -11.6730 Q=   -0.8200 A=    0.0000 R=    0.0000 C=    0.0000
 XYZ=    1.4873   -5.6836  -11.0767 Q=    0.4100 A=    0.0000 R=    0.0000 C=    0.0000
 XYZ=    3.0068   -6.2259  -11.3290 Q=    0.4100 A=    0.0000 R=    0.0000 C=    0.0000
 XYZ=   -0.1937   12.6994    2.1807 Q=   -0.8200 A=    0.0000 R=    0.0000 C=    0.0000
 XYZ=   -0.8869   12.6986    1.4599 Q=    0.4100 A=    0.0000 R=    0.0000 C=    0.0000
 XYZ=    0.5495   12.0794    1.9292 Q=    0.4100 A=    0.0000 R=    0.0000 C=    0.0000
 XYZ=    1.8163   -9.5254   -9.7806 Q=   -0.8200 A=    0.0000 R=    0.0000 C=    0.0000
 XYZ=    2.0994   -9.1534  -10.6648 Q=    0.4100 A=    0.0000 R=    0.0000 C=    0.0000
 XYZ=    1.8914   -8.8150   -9.0808 Q=    0.4100 A=    0.0000 R=    0.0000 C=    0.0000
 XYZ=    3.5705   12.3818    1.8357 Q=   -0.8200 A=    0.0000 R=    0.0000 C=    0.0000
 XYZ=    2.8106   11.7405    1.7293 Q=    0.4100 A=    0.0000 R=    0.0000 C=    0.0000
 XYZ=    3.2171   13.3170    1.8549 Q=    0.4100 A=    0.0000 R=    0.0000 C=    0.0000
 XYZ=    9.6107    5.2430   -4.0735 Q=   -0.8200 A=    0.0000 R=    0.0000 C=    0.0000
 XYZ=    9.0751    5.0585   -3.2494 Q=    0.4100 A=    0.0000 R=    0.0000 C=    0.0000
 XYZ=   10.5319    4.8697   -3.9627 Q=    0.4100 A=    0.0000 R=    0.0000 C=    0.0000
[...]
    39  O    0.000000   0.000000   0.000000   0.000000   0.000000  -0.002474
    40  H    0.000000   0.000000   0.000000   0.000000   0.000000   0.000000
    41  H    0.000000   0.000000   0.000000   0.000000   0.000000  -0.000043
    42  O    0.000000   0.000000   0.000000   0.000000   0.000000  -0.000315
    43  H    0.000000   0.000000   0.000000   0.000000   0.000000   0.000004
    44  H    0.000000   0.000000   0.000000   0.000000   0.000000  -0.000029
    45  O    0.000000   0.000000   0.000000   0.000000   0.000000   0.000000
    46  H    0.000000   0.000000   0.000000   0.000000   0.000000   0.000000
    47  H    0.000000   0.000000   0.000000   0.000000   0.000000   0.000000
    48  O    0.000011   0.000000  -0.001666  -0.001284   0.000089   0.000000
    49  H    0.000000   0.000000   0.000005  -0.000005   0.000000   0.000000
    50  H    0.000000   0.000000  -0.000010   0.000012   0.000000   0.000000
              31         32         33         34         35         36
     1  C    0.000030  -0.000554   0.001409  -0.000309   0.000396  -0.000341
     2  H    0.000000   0.000000  -0.000002   0.000000   0.000000   0.000000
     3  H    0.000000   0.000000  -0.000013   0.000000   0.000000   0.000000
     4  C   -0.000122   0.007606  -0.007193  -0.000199  -0.003071  -0.000081
     5  H    0.000000  -0.000001   0.000303  -0.000002   0.000196   0.000000
     6  C    0.000078   0.002745   0.003995   0.000411   0.002282  -0.000517
     7  H   -0.000035   0.004342   0.000002   0.000000  -0.000003  -0.000001
     8  O    0.000346  -0.008538  -0.000026   0.000000   0.000000  -0.000704
     9  O    0.000382   0.059147   0.000003   0.000000   0.000000   0.000024
    10  H    0.000089   0.000543   0.000000   0.000000   0.000000   0.000042
    11  H    0.000108  -0.001690   0.000000   0.000000   0.000000  -0.000023
    12  O    0.000000  -0.000003  -0.000001   0.000000   0.000000   0.000009
    13  H    0.000000   0.000000   0.000000   0.000000   0.000000   0.000000
    14  H    0.000000   0.000000   0.000000   0.000000   0.000000   0.000000
    15  O   -0.000109  -0.001281   0.000000   0.000000   0.000000  -0.019790
    16  H   -0.000017   0.001288   0.000000   0.000000   0.000000  -0.000597
    17  H   -0.000025  -0.000094   0.000000   0.000000   0.000000  -0.001767
    18  O    0.000000   0.000000   0.001092  -0.000031   0.000095   0.000000
    19  H    0.000000   0.000000  -0.000015   0.000000   0.000000   0.000000
    20  H    0.000000   0.000000  -0.001621   0.000030  -0.000042   0.000000
    21  O    0.000000   0.000000   0.000025   0.000000   0.000000   0.000000
    22  H    0.000000   0.000000   0.000000   0.000000   0.000000   0.000000
    23  H    0.000000   0.000000   0.000000   0.000000   0.000000   0.000000
    24  O    0.000000   0.000000   0.007473  -0.000091  -0.000084   0.000000
    25  H    0.000000   0.000000   0.001651  -0.000026   0.000011   0.000000
    26  H    0.000000   0.000000  -0.000174   0.000002   0.000003   0.000000
    27  O    0.000000   0.000000  -0.077011   0.003301  -0.000980   0.000000
    28  H    0.000000   0.000000   0.007380   0.000927   0.000639   0.000000
    29  H    0.000000   0.000000   0.005534  -0.000470   0.000125   0.000000
    30  O    0.209217   0.107078  -0.000002   0.000000   0.000000  -0.000035
    31  H    0.160400  -0.003411   0.000000   0.000000   0.000000   0.000000
    32  H   -0.003411   0.219100   0.000000   0.000000   0.000000   0.000003
    33  O    0.000000   0.000000   9.132600   0.202173   0.170563   0.000000
    34  H    0.000000   0.000000   0.202173   0.185580  -0.007590   0.000000
    35  H    0.000000   0.000000   0.170563  -0.007590   0.186411   0.000000
    36  O    0.000000   0.000003   0.000000   0.000000   0.000000   8.761488
    37  H    0.000000  -0.000003   0.000000   0.000000   0.000000   0.156406
    38  H    0.000000   0.000000   0.000000   0.000000   0.000000   0.228922
    39  O   -0.000039   0.001517   0.000000   0.000000   0.000000   0.000149
    40  H   -0.000001  -0.000011   0.000000   0.000000   0.000000  -0.000001
    41  H   -0.000005  -0.000011   0.000000   0.000000   0.000000   0.000055
    42  O   -0.000019   0.000332   0.000000   0.000000   0.000000  -0.005018
    43  H    0.000000  -0.000003   0.000000   0.000000   0.000000   0.000211
    44  H    0.000000  -0.000039   0.000000   0.000000   0.000000  -0.000289
    45  O    0.000000   0.000000   0.000000   0.000000   0.000000   0.000001
    46  H    0.000000   0.000000   0.000000   0.000000   0.000000   0.000000
    47  H    0.000000   0.000000   0.000000   0.000000   0.000000   0.000000
    48  O    0.000000   0.000000  -0.123906  -0.001977   0.038541   0.000000
    49  H    0.000000   0.000000   0.004198  -0.000026  -0.000689   0.000000
    50  H    0.000000   0.000000  -0.000384  -0.000024   0.000726   0.000000
              37         38         39         40         41         42
     1  C    0.000121   0.000005   0.000717  -0.000013  -0.000083   0.000503
     2  H    0.000000   0.000000  -0.000001   0.000000   0.000000   0.000004
     3  H    0.000000   0.000000   0.000000   0.000000   0.000000   0.000000
     4  C    0.000399   0.000008   0.001033   0.000015  -0.000322   0.003408
     5  H    0.000000   0.000000   0.000000   0.000000   0.000000   0.000000
     6  C    0.000087   0.000056   0.005267  -0.000516  -0.000774   0.003331
     7  H    0.000000   0.000000   0.000068  -0.000001  -0.000006   0.000005
     8  O    0.000057   0.000009  -0.023687   0.000870  -0.001709   0.003035
     9  O    0.000758  -0.000004  -0.067006   0.002640   0.018107  -0.036977
    10  H    0.000000   0.000000   0.000224  -0.000125  -0.000205   0.001468
    11  H    0.000014   0.000000   0.022859   0.001660  -0.004774   0.002017
    12  O   -0.000002   0.000000  -0.000298   0.000012   0.000073  -0.000245
    13  H    0.000000   0.000000   0.000002   0.000000   0.000000  -0.000008
    14  H    0.000000   0.000000   0.000198  -0.000006  -0.000018   0.000053
    15  O    0.044950   0.001274  -0.004211   0.000061   0.006928  -0.152799
    16  H    0.002039   0.000089  -0.000168  -0.000040  -0.001388   0.015671
    17  H   -0.000479  -0.000112  -0.000026  -0.000001  -0.000147   0.000872
    18  O    0.000000   0.000000   0.000000   0.000000   0.000000   0.000000
    19  H    0.000000   0.000000   0.000000   0.000000   0.000000   0.000000
    20  H    0.000000   0.000000   0.000000   0.000000   0.000000   0.000000
    21  O    0.000000   0.000000  -0.000001   0.000000   0.000000   0.000001
    22  H    0.000000   0.000000   0.000000   0.000000   0.000000   0.000000
    23  H    0.000000   0.000000   0.000000   0.000000   0.000000   0.000000
    24  O    0.000000   0.000000  -0.000001   0.000000   0.000000   0.000000
    25  H    0.000000   0.000000   0.000000   0.000000   0.000000   0.000000
    26  H    0.000000   0.000000   0.000000   0.000000   0.000000   0.000000
    27  O    0.000000   0.000000   0.000000   0.000000   0.000000   0.000000
    28  H    0.000000   0.000000   0.000000   0.000000   0.000000   0.000000
    29  H    0.000000   0.000000   0.000000   0.000000   0.000000   0.000000
    30  O   -0.000007   0.000000  -0.002474   0.000000  -0.000043  -0.000315
    31  H    0.000000   0.000000  -0.000039  -0.000001  -0.000005  -0.000019
    32  H   -0.000003   0.000000   0.001517  -0.000011  -0.000011   0.000332
    33  O    0.000000   0.000000   0.000000   0.000000   0.000000   0.000000
    34  H    0.000000   0.000000   0.000000   0.000000   0.000000   0.000000
    35  H    0.000000   0.000000   0.000000   0.000000   0.000000   0.000000
    36  O    0.156406   0.228922   0.000149  -0.000001   0.000055  -0.005018
    37  H    0.200015  -0.007189  -0.000018   0.000000  -0.000006   0.002014
    38  H   -0.007189   0.246159   0.000001   0.000000   0.000000   0.000441
    39  O   -0.000018   0.000001   9.012863   0.216762   0.121250  -0.121968
    40  H    0.000000   0.000000   0.216762   0.192464  -0.002428   0.003421
    41  H   -0.000006   0.000000   0.121250  -0.002428   0.241625   0.023619
    42  O    0.002014   0.000441  -0.121968   0.003421   0.023619   9.269712
    43  H   -0.000078  -0.000030  -0.000244  -0.000081  -0.001681   0.189238
    44  H   -0.001296  -0.000108   0.005678  -0.000037   0.003452   0.080710
    45  O    0.000000   0.000000   0.000000   0.000000   0.000000  -0.000026
    46  H    0.000000   0.000000   0.000000   0.000000   0.000000   0.000001
    47  H    0.000000   0.000000   0.000002   0.000000   0.000000   0.000032
    48  O    0.000000   0.000000   0.000000   0.000000   0.000000   0.000000
    49  H    0.000000   0.000000   0.000000   0.000000   0.000000   0.000000
    50  H    0.000000   0.000000   0.000000   0.000000   0.000000   0.000000
              43         44         45         46         47         48
     1  C   -0.000037  -0.000134  -0.000741  -0.000107   0.000058   0.003081
     2  H    0.000000   0.000000  -0.000099   0.000003  -0.000009   0.000000
     3  H    0.000000   0.000000   0.000001   0.000000   0.000000  -0.000001
     4  C   -0.000143   0.000140   0.000383   0.000140   0.000027  -0.002446
     5  H    0.000000   0.000000   0.000000   0.000000   0.000000  -0.000094
     6  C   -0.000200  -0.000238  -0.000032   0.000036   0.000089  -0.000027
     7  H    0.000000   0.000000   0.000000   0.000000   0.000000   0.000005
     8  O    0.000102   0.001017  -0.000193   0.000000  -0.000120  -0.000001
     9  O   -0.000543   0.004610  -0.000033   0.000000  -0.000051   0.000001
    10  H   -0.000002  -0.000102  -0.000004   0.000000   0.000000   0.000000
    11  H   -0.000229  -0.001011   0.000000   0.000000   0.000000   0.000000
    12  O   -0.000021   0.000022  -0.095510   0.000794   0.032409   0.000000
    13  H    0.000001   0.000000   0.006121  -0.000402  -0.002185   0.000000
    14  H   -0.000003  -0.000003   0.005520  -0.000043   0.001099   0.000000
    15  O    0.001115   0.067820   0.000003   0.000000  -0.000005   0.000000
    16  H   -0.000453   0.000174   0.000001   0.000000   0.000000   0.000000
    17  H    0.000079  -0.006123   0.000000   0.000000   0.000000   0.000000
    18  O    0.000000   0.000000   0.000049   0.000006   0.000016   0.000029
    19  H    0.000000   0.000000   0.000000   0.000000   0.000000   0.000000
    20  H    0.000000   0.000000   0.000000   0.000000   0.000000  -0.000015
    21  O    0.000000   0.000000  -0.002698   0.001438   0.001284   0.000000
    22  H    0.000000   0.000000   0.000370  -0.000101  -0.000028   0.000000
    23  H    0.000000   0.000000   0.000015   0.000004  -0.000004   0.000000
    24  O    0.000000   0.000000   0.000000   0.000000   0.000000   0.000052
    25  H    0.000000   0.000000   0.000000   0.000000   0.000000   0.000011
    26  H    0.000000   0.000000   0.000000   0.000000   0.000000   0.000000
    27  O    0.000000   0.000000   0.000000   0.000000   0.000000  -0.001666
    28  H    0.000000   0.000000   0.000000   0.000000   0.000000  -0.001284
    29  H    0.000000   0.000000   0.000000   0.000000   0.000000   0.000089
    30  O    0.000004  -0.000029   0.000000   0.000000   0.000000   0.000000
    31  H    0.000000   0.000000   0.000000   0.000000   0.000000   0.000000
    32  H   -0.000003  -0.000039   0.000000   0.000000   0.000000   0.000000
    33  O    0.000000   0.000000   0.000000   0.000000   0.000000  -0.123906
    34  H    0.000000   0.000000   0.000000   0.000000   0.000000  -0.001977
    35  H    0.000000   0.000000   0.000000   0.000000   0.000000   0.038541
    36  O    0.000211  -0.000289   0.000001   0.000000   0.000000   0.000000
    37  H   -0.000078  -0.001296   0.000000   0.000000   0.000000   0.000000
    38  H   -0.000030  -0.000108   0.000000   0.000000   0.000000   0.000000
    39  O   -0.000244   0.005678   0.000000   0.000000   0.000002   0.000000
    40  H   -0.000081  -0.000037   0.000000   0.000000   0.000000   0.000000
    41  H   -0.001681   0.003452   0.000000   0.000000   0.000000   0.000000
    42  O    0.189238   0.080710  -0.000026   0.000001   0.000032   0.000000
    43  H    0.153992  -0.003265   0.000005   0.000000  -0.000004   0.000000
    44  H   -0.003265   0.208768   0.000001   0.000000   0.000000   0.000000
    45  O    0.000005   0.000001   8.933911   0.218557   0.154160   0.000000
    46  H    0.000000   0.000000   0.218557   0.229378  -0.003418   0.000000
    47  H   -0.000004   0.000000   0.154160  -0.003418   0.185959   0.000000
    48  O    0.000000   0.000000   0.000000   0.000000   0.000000   8.809022
    49  H    0.000000   0.000000   0.000000   0.000000   0.000000   0.209521
    50  H    0.000000   0.000000   0.000000   0.000000   0.000000   0.223748
              49         50
     1  C    0.000026   0.000033
     2  H    0.000000   0.000000
     3  H    0.000000   0.000000
     4  C    0.000010   0.000015
     5  H   -0.000001   0.000000
     6  C   -0.000086  -0.000035
     7  H    0.000000   0.000000
     8  O    0.000000   0.000000
     9  O    0.000000   0.000000
    10  H    0.000000   0.000000
    11  H    0.000000   0.000000
    12  O    0.000000   0.000000
    13  H    0.000000   0.000000
    14  H    0.000000   0.000000
    15  O    0.000000   0.000000
    16  H    0.000000   0.000000
    17  H    0.000000   0.000000
    18  O    0.000000   0.000000
    19  H    0.000000   0.000000
    20  H    0.000000   0.000000
    21  O    0.000000   0.000000
    22  H    0.000000   0.000000
    23  H    0.000000   0.000000
    24  O    0.000000   0.000000
    25  H    0.000000   0.000000
    26  H    0.000000   0.000000
    27  O    0.000005  -0.000010
    28  H   -0.000005   0.000012
    29  H    0.000000   0.000000
    30  O    0.000000   0.000000
    31  H    0.000000   0.000000
    32  H    0.000000   0.000000
    33  O    0.004198  -0.000384
    34  H   -0.000026  -0.000024
    35  H   -0.000689   0.000726
    36  O    0.000000   0.000000
    37  H    0.000000   0.000000
    38  H    0.000000   0.000000
    39  O    0.000000   0.000000
    40  H    0.000000   0.000000
    41  H    0.000000   0.000000
    42  O    0.000000   0.000000
    43  H    0.000000   0.000000
    44  H    0.000000   0.000000
    45  O    0.000000   0.000000
    46  H    0.000000   0.000000
    47  H    0.000000   0.000000
    48  O    0.209521   0.223748
    49  H    0.177851  -0.004131
    50  H   -0.004131   0.164262
 Mulliken charges:
               1
     1  C   -0.486723
     2  H    0.277280
     3  H    0.249801
     4  C    0.052348
     5  H    0.241179
     6  C    0.020316
     7  H    0.245258
     8  O   -0.330554
     9  O   -1.572671
    10  H    0.613077
    11  H    0.624551
    12  O   -1.111209
    13  H    0.613006
    14  H    0.511303
    15  O   -1.376871
    16  H    0.685623
    17  H    0.678264
    18  O   -1.214497
    19  H    0.593437
    20  H    0.578759
    21  O   -1.238258
    22  H    0.655140
    23  H    0.600707
    24  O   -1.164333
    25  H    0.668413
    26  H    0.530491
    27  O   -1.194551
    28  H    0.652399
    29  H    0.585966
    30  O   -1.226525
    31  H    0.633133
    32  H    0.611937
    33  O   -1.328048
    34  H    0.618323
    35  H    0.612470
    36  O   -1.118145
    37  H    0.602220
    38  H    0.530478
    39  O   -1.168451
    40  H    0.585354
    41  H    0.598490
    42  O   -1.282509
    43  H    0.662268
    44  H    0.640280
    45  O   -1.219762
    46  H    0.553717
    47  H    0.630690
    48  O   -1.152683
    49  H    0.613327
    50  H    0.615787
 Sum of Mulliken charges =   0.00000
 Mulliken charges with hydrogens summed into heavy atoms:
               1
     1  C    0.040357
     4  C    0.293527
     6  C    0.265574
     8  O    0.282523
     9  O   -0.948120
    12  O    0.013100
    15  O   -0.012984
    18  O   -0.042302
    21  O    0.017589
    24  O    0.034570
    27  O    0.043814
    30  O    0.018545
    33  O   -0.097256
    36  O    0.014553
    39  O    0.015394
    42  O    0.020040
    45  O   -0.035355
    48  O    0.076431
 Electronic spatial extent (au):  <R**2>=          12046.7852
 Charge=              0.0000 electrons
 Dipole moment (field-independent basis, Debye):
    X=            -15.3143    Y=             -9.1050    Z=             -1.8250  Tot=             17.9098
 Quadrupole moment (field-independent basis, Debye-Ang):
   XX=           -122.8630   YY=           -109.9226   ZZ=           -115.8778
   XY=             18.8477   XZ=             28.0027   YZ=             -0.7981
 Traceless Quadrupole moment (field-independent basis, Debye-Ang):
   XX=             -6.6419   YY=              6.2985   ZZ=              0.3434
   XY=             18.8477   XZ=             28.0027   YZ=             -0.7981
 Octapole moment (field-independent basis, Debye-Ang**2):
  XXX=           -219.2222  YYY=           -154.9522  ZZZ=             72.7407  XYY=           -323.2011
  XXY=           -356.4786  XXZ=             53.1777  XZZ=           -152.9492  YZZ=             26.4968
  YYZ=           -143.1459  XYZ=            -38.1734
 Hexadecapole moment (field-independent basis, Debye-Ang**3):
 XXXX=          -7949.4180 YYYY=          -3749.0191 ZZZZ=          -1487.4416 XXXY=           1337.2642
 XXXZ=            766.4084 YYYX=           -371.8151 YYYZ=            -37.2315 ZZZX=            457.6771
 ZZZY=            -32.4124 XXYY=          -1168.9100 XXZZ=          -1911.2379 YYZZ=           -711.5963
 XXYZ=            184.2657 YYXZ=            482.2211 ZZXY=            387.8904
 N-N= 1.139278210965D+03 E-N=-6.245649583641D+03  KE= 1.250953593829D+03
 Leave Link  601 at Fri Sep 14 17:44:01 2018, MaxMem=    33554432 cpu:        24.4
 (Enter /usr/local/pacerepov1/gaussian/G09D01LINDA/g09/l9999.exe)

 Test job not archived.
 1\1\GINC-IW-H31-25\SP\RLC-wPBE TD-FC\6-31+G(d)\C3H32O15\ROOT\14-Sep-20
 18\0\\#p td=(nstates=15)/6-31+g(d) lc-wpbe charge\\Acroleina in Water\
 \0,1\C,0,0.485154,0.480443,-1.430142\H,0,1.461403,0.187773,-1.055732\H
 ,0,0.429244,0.878853,-2.437062\C,0,-0.605127,0.346563,-0.658432\H,0,-1
 .591686,0.632893,-1.012412\C,0,-0.508516,-0.199107,0.712798\H,0,-1.458
 487,-0.272107,1.272438\O,0,0.544883,-0.561317,1.236519\O,0,0.314432,-1
 .370012,2.764229\H,0,0.460442,-0.640332,2.096199\H,0,0.643762,-1.07229
 2,3.660299\O,0,3.455801,1.352228,1.068009\H,0,3.204131,2.080088,0.4300
 69\H,0,2.641762,1.044738,1.560759\O,0,1.285412,-3.421562,2.291229\H,0,
 0.810412,-2.541742,2.309989\H,0,0.710642,-4.119762,2.718029\O,0,0.5731
 02,4.332528,-0.811181\H,0,1.015942,4.966918,-1.444801\H,0,-0.419148,4.
 443488,-0.867591\O,0,2.890571,3.156268,-0.343361\H,0,3.496542,3.502488
 ,-1.059551\H,0,1.949552,3.430568,-0.541621\O,0,-1.888488,4.813097,1.23
 4879\H,0,-2.725929,4.328438,1.487619\H,0,-1.131318,4.487937,1.801469\O
 ,0,-1.921748,4.594428,-1.025621\H,0,-2.710209,3.993708,-1.157981\H,0,-
 1.822708,4.804938,-0.053041\O,0,-2.188439,-1.885292,3.367389\H,0,-1.95
 9378,-2.407302,4.189039\H,0,-1.349188,-1.650782,2.876779\O,0,-3.851649
 ,3.261488,-1.303421\H,0,-4.495618,3.866688,-0.835371\H,0,-4.285638,2.3
 75508,-1.467021\O,0,2.512581,-5.415193,1.157139\H,0,1.867242,-4.691642
 ,1.402239\H,0,3.025491,-5.693432,1.969269\O,0,1.419152,-1.023872,4.865
 819\H,0,2.050122,-0.516642,5.452849\H,0,1.930132,-1.695242,4.328999\O,
 0,2.814761,-2.575842,3.804429\H,0,3.606571,-2.235882,3.296969\H,0,2.20
 9862,-3.074312,3.183409\O,0,5.681002,1.015668,0.386549\H,0,5.729752,1.
 222338,-0.590671\H,0,4.726101,1.031058,0.683199\O,0,-5.328888,1.573288
 ,-1.764171\H,0,-5.658519,0.650218,-1.565781\H,0,-5.849409,1.956198,-2.
 527351\\Version=EM64L-G09RevD.01\State=1-A\HF=-1758.7982292\RMSD=4.017
 e-09\PG=C01 [X(C3H32O15)]\\@


 MY GROUP MEETINGS AREN'T VERY STRUCTURED.
     -- PROF. M. S. GORDON, OCT. 5, 1984
 Job cpu time:       0 days  5 hours 14 minutes 43.9 seconds.
 File lengths (MBytes):  RWF=    792 Int=      0 D2E=      0 Chk=     96 Scr=      2
 Normal termination of Gaussian 09 at Fri Sep 14 17:44:07 2018.
