 Entering Gaussian System, Link 0=g09
 Input=Acroleina_water_15_23c.gjf
 Output=Acroleina_water_15_23c.log
 Initial command:
 /usr/local/pacerepov1/gaussian/G09D01LINDA/g09/l1.exe /nv/hp18/holiveira7/scratch/22411842/Gau-61304.inp -scrdir=/nv/hp18/holiveira7/scratch/22411842/
 Entering Link 1 = /usr/local/pacerepov1/gaussian/G09D01LINDA/g09/l1.exe PID=     61305.
  
 Copyright (c) 1988,1990,1992,1993,1995,1998,2003,2009,2013,
            Gaussian, Inc.  All Rights Reserved.
  
 This is part of the Gaussian(R) 09 program.  It is based on
 the Gaussian(R) 03 system (copyright 2003, Gaussian, Inc.),
 the Gaussian(R) 98 system (copyright 1998, Gaussian, Inc.),
 the Gaussian(R) 94 system (copyright 1995, Gaussian, Inc.),
 the Gaussian 92(TM) system (copyright 1992, Gaussian, Inc.),
 the Gaussian 90(TM) system (copyright 1990, Gaussian, Inc.),
 the Gaussian 88(TM) system (copyright 1988, Gaussian, Inc.),
 the Gaussian 86(TM) system (copyright 1986, Carnegie Mellon
 University), and the Gaussian 82(TM) system (copyright 1983,
 Carnegie Mellon University). Gaussian is a federally registered
 trademark of Gaussian, Inc.
  
 This software contains proprietary and confidential information,
 including trade secrets, belonging to Gaussian, Inc.
  
 This software is provided under written license and may be
 used, copied, transmitted, or stored only in accord with that
 written license.
  
 The following legend is applicable only to US Government
 contracts under FAR:
  
                    RESTRICTED RIGHTS LEGEND
  
 Use, reproduction and disclosure by the US Government is
 subject to restrictions as set forth in subparagraphs (a)
 and (c) of the Commercial Computer Software - Restricted
 Rights clause in FAR 52.227-19.
  
 Gaussian, Inc.
 340 Quinnipiac St., Bldg. 40, Wallingford CT 06492
  
  
 ---------------------------------------------------------------
 Warning -- This program may not be used in any manner that
 competes with the business of Gaussian, Inc. or will provide
 assistance to any competitor of Gaussian, Inc.  The licensee
 of this program is prohibited from giving any competitor of
 Gaussian, Inc. access to this program.  By using this program,
 the user acknowledges that Gaussian, Inc. is engaged in the
 business of creating and licensing software in the field of
 computational chemistry and represents and warrants to the
 licensee that it is not a competitor of Gaussian, Inc. and that
 it will not use this program in any manner prohibited above.
 ---------------------------------------------------------------
  

 Cite this work as:
 Gaussian 09, Revision D.01,
 M. J. Frisch, G. W. Trucks, H. B. Schlegel, G. E. Scuseria, 
 M. A. Robb, J. R. Cheeseman, G. Scalmani, V. Barone, B. Mennucci, 
 G. A. Petersson, H. Nakatsuji, M. Caricato, X. Li, H. P. Hratchian, 
 A. F. Izmaylov, J. Bloino, G. Zheng, J. L. Sonnenberg, M. Hada, 
 M. Ehara, K. Toyota, R. Fukuda, J. Hasegawa, M. Ishida, T. Nakajima, 
 Y. Honda, O. Kitao, H. Nakai, T. Vreven, J. A. Montgomery, Jr., 
 J. E. Peralta, F. Ogliaro, M. Bearpark, J. J. Heyd, E. Brothers, 
 K. N. Kudin, V. N. Staroverov, T. Keith, R. Kobayashi, J. Normand, 
 K. Raghavachari, A. Rendell, J. C. Burant, S. S. Iyengar, J. Tomasi, 
 M. Cossi, N. Rega, J. M. Millam, M. Klene, J. E. Knox, J. B. Cross, 
 V. Bakken, C. Adamo, J. Jaramillo, R. Gomperts, R. E. Stratmann, 
 O. Yazyev, A. J. Austin, R. Cammi, C. Pomelli, J. W. Ochterski, 
 R. L. Martin, K. Morokuma, V. G. Zakrzewski, G. A. Voth, 
 P. Salvador, J. J. Dannenberg, S. Dapprich, A. D. Daniels, 
 O. Farkas, J. B. Foresman, J. V. Ortiz, J. Cioslowski, 
 and D. J. Fox, Gaussian, Inc., Wallingford CT, 2013.
 
 ******************************************
 Gaussian 09:  EM64L-G09RevD.01 24-Apr-2013
                14-Sep-2018 
 ******************************************
 %chk=Acrolina_Din_23.chk
 %nprocshared=10
 Will use up to   10 processors via shared memory.
 -------------------------------------------
 #p td=(nstates=15)/6-31+g(d) lc-wpbe charge
 -------------------------------------------
 1/18=10,28=-2,38=1,125=101/1;
 2/12=2,17=6,18=5,40=1/2;
 3/5=1,6=6,7=11,11=9,16=1,25=1,30=1,74=-41/1,2,8,3;
 4//1;
 5/5=2,38=5/2;
 8/6=1,10=2,108=15/1;
 9/41=15,42=1,70=2/14;
 6/7=2,8=2,9=2,10=2/1;
 99/5=1,9=1/99;
 Leave Link    1 at Fri Sep 14 16:43:47 2018, MaxMem=           0 cpu:         1.9
 (Enter /usr/local/pacerepov1/gaussian/G09D01LINDA/g09/l101.exe)
 ------------------
 Acroleina in Water
 ------------------
 Symbolic Z-matrix:
 Charge =  0 Multiplicity = 1
 C                     0.48515   0.48044  -1.43014 
 H                     1.4614    0.18777  -1.05573 
 H                     0.42924   0.87885  -2.43706 
 C                    -0.60513   0.34656  -0.65843 
 H                    -1.59169   0.63289  -1.01241 
 C                    -0.50852  -0.19911   0.7128 
 H                    -1.45849  -0.27211   1.27244 
 O                     0.54488  -0.56132   1.23652 
 O                    -0.19437  -0.42744   3.06863 
 H                     0.24263   0.1601    2.38756 
 H                     0.18586  -0.23003   3.97223 
 O                     2.7071    2.69797   1.2682 
 H                     2.61687   3.63845   0.94042 
 H                     1.83541   2.22088   1.15603 
 O                    -2.37631  -0.87204   3.61278 
 H                    -2.36211  -1.30931   4.51204 
 H                    -1.44299  -0.63588   3.34226 
 O                    -4.61486  -0.83697   2.79447 
 H                    -3.62519  -0.969     2.85072 
 H                    -5.07969  -1.67447   3.0819 
 O                     0.8532   -2.58293   2.82322 
 H                     0.37877  -1.70649   2.90569 
 H                     0.2966   -3.3034    3.2369 
 O                     5.11857   2.5623    0.76648 
 H                     5.24895   2.83781  -0.18596 
 H                     4.14471   2.59232   0.99176 
 O                     5.18999   1.28788  -3.26089 
 H                     5.98694   1.3252   -3.8638 
 H                     5.2066    0.43504  -2.73893 
 O                     0.94564   0.1043    4.94913 
 H                     1.41851   0.80013   5.48969 
 H                     1.59599  -0.60471   4.67637 
 O                     3.48048   0.20408  -4.2979 
 H                     2.92661   0.68027  -4.98096 
 H                     4.19743   0.81636  -3.96451 
 O                    -3.35353  -5.34527   1.76453 
 H                    -3.70571  -6.27498   1.87252 
 H                    -3.90537  -4.85622   1.08898 
 O                    -4.41835   0.55176   4.61915 
 H                    -3.50152   0.94259   4.70123 
 H                    -4.48065   0.02294   3.77266 
 O                     2.47849  -1.61923   4.17749 
 H                     3.3537   -1.24044   3.87651 
 H                     2.05899  -2.12748   3.42533 
 O                    -6.64171  -0.65889   1.45241 
 H                    -5.83029  -0.53009   2.02251 
 H                    -6.67662  -1.60532   1.13133 
 O                     2.25964  -4.19212   1.79126 
 H                     1.74945  -3.42372   2.17771 
 H                     2.45362  -4.85893   2.51083 
 
 NAtoms=     50 NQM=       50 NQMF=       0 NMMI=      0 NMMIF=      0
                NMic=       0 NMicF=      0.
                    Isotopes and Nuclear Properties:
 (Nuclear quadrupole moments (NQMom) in fm**2, nuclear magnetic moments (NMagM)
  in nuclear magnetons)

  Atom         1           2           3           4           5           6           7           8           9          10
 IAtWgt=          12           1           1          12           1          12           1          16          16           1
 AtmWgt=  12.0000000   1.0078250   1.0078250  12.0000000   1.0078250  12.0000000   1.0078250  15.9949146  15.9949146   1.0078250
 NucSpn=           0           1           1           0           1           0           1           0           0           1
 AtZEff=   0.0000000   0.0000000   0.0000000   0.0000000   0.0000000   0.0000000   0.0000000   0.0000000   0.0000000   0.0000000
 NQMom=    0.0000000   0.0000000   0.0000000   0.0000000   0.0000000   0.0000000   0.0000000   0.0000000   0.0000000   0.0000000
 NMagM=    0.0000000   2.7928460   2.7928460   0.0000000   2.7928460   0.0000000   2.7928460   0.0000000   0.0000000   2.7928460
 AtZNuc=   6.0000000   1.0000000   1.0000000   6.0000000   1.0000000   6.0000000   1.0000000   8.0000000   8.0000000   1.0000000

  Atom        11          12          13          14          15          16          17          18          19          20
 IAtWgt=           1          16           1           1          16           1           1          16           1           1
 AtmWgt=   1.0078250  15.9949146   1.0078250   1.0078250  15.9949146   1.0078250   1.0078250  15.9949146   1.0078250   1.0078250
 NucSpn=           1           0           1           1           0           1           1           0           1           1
 AtZEff=   0.0000000   0.0000000   0.0000000   0.0000000   0.0000000   0.0000000   0.0000000   0.0000000   0.0000000   0.0000000
 NQMom=    0.0000000   0.0000000   0.0000000   0.0000000   0.0000000   0.0000000   0.0000000   0.0000000   0.0000000   0.0000000
 NMagM=    2.7928460   0.0000000   2.7928460   2.7928460   0.0000000   2.7928460   2.7928460   0.0000000   2.7928460   2.7928460
 AtZNuc=   1.0000000   8.0000000   1.0000000   1.0000000   8.0000000   1.0000000   1.0000000   8.0000000   1.0000000   1.0000000

  Atom        21          22          23          24          25          26          27          28          29          30
 IAtWgt=          16           1           1          16           1           1          16           1           1          16
 AtmWgt=  15.9949146   1.0078250   1.0078250  15.9949146   1.0078250   1.0078250  15.9949146   1.0078250   1.0078250  15.9949146
 NucSpn=           0           1           1           0           1           1           0           1           1           0
 AtZEff=   0.0000000   0.0000000   0.0000000   0.0000000   0.0000000   0.0000000   0.0000000   0.0000000   0.0000000   0.0000000
 NQMom=    0.0000000   0.0000000   0.0000000   0.0000000   0.0000000   0.0000000   0.0000000   0.0000000   0.0000000   0.0000000
 NMagM=    0.0000000   2.7928460   2.7928460   0.0000000   2.7928460   2.7928460   0.0000000   2.7928460   2.7928460   0.0000000
 AtZNuc=   8.0000000   1.0000000   1.0000000   8.0000000   1.0000000   1.0000000   8.0000000   1.0000000   1.0000000   8.0000000

  Atom        31          32          33          34          35          36          37          38          39          40
 IAtWgt=           1           1          16           1           1          16           1           1          16           1
 AtmWgt=   1.0078250   1.0078250  15.9949146   1.0078250   1.0078250  15.9949146   1.0078250   1.0078250  15.9949146   1.0078250
 NucSpn=           1           1           0           1           1           0           1           1           0           1
 AtZEff=   0.0000000   0.0000000   0.0000000   0.0000000   0.0000000   0.0000000   0.0000000   0.0000000   0.0000000   0.0000000
 NQMom=    0.0000000   0.0000000   0.0000000   0.0000000   0.0000000   0.0000000   0.0000000   0.0000000   0.0000000   0.0000000
 NMagM=    2.7928460   2.7928460   0.0000000   2.7928460   2.7928460   0.0000000   2.7928460   2.7928460   0.0000000   2.7928460
 AtZNuc=   1.0000000   1.0000000   8.0000000   1.0000000   1.0000000   8.0000000   1.0000000   1.0000000   8.0000000   1.0000000

  Atom        41          42          43          44          45          46          47          48          49          50
 IAtWgt=           1          16           1           1          16           1           1          16           1           1
 AtmWgt=   1.0078250  15.9949146   1.0078250   1.0078250  15.9949146   1.0078250   1.0078250  15.9949146   1.0078250   1.0078250
 NucSpn=           1           0           1           1           0           1           1           0           1           1
 AtZEff=   0.0000000   0.0000000   0.0000000   0.0000000   0.0000000   0.0000000   0.0000000   0.0000000   0.0000000   0.0000000
 NQMom=    0.0000000   0.0000000   0.0000000   0.0000000   0.0000000   0.0000000   0.0000000   0.0000000   0.0000000   0.0000000
 NMagM=    2.7928460   0.0000000   2.7928460   2.7928460   0.0000000   2.7928460   2.7928460   0.0000000   2.7928460   2.7928460
 AtZNuc=   1.0000000   8.0000000   1.0000000   1.0000000   8.0000000   1.0000000   1.0000000   8.0000000   1.0000000   1.0000000
 Background charge distribution read from input stream:
 Point Charges:
 XYZ=    5.8273    3.0297   -1.7454 Q=   -0.8200 A=    0.0000 R=    0.0000 C=    0.0000
 XYZ=    5.5356    3.9702   -1.9202 Q=    0.4100 A=    0.0000 R=    0.0000 C=    0.0000
 XYZ=    5.3286    2.4083   -2.3497 Q=    0.4100 A=    0.0000 R=    0.0000 C=    0.0000
 XYZ=    2.3424    5.0763    0.5959 Q=   -0.8200 A=    0.0000 R=    0.0000 C=    0.0000
 XYZ=    2.9825    5.3579   -0.1190 Q=    0.4100 A=    0.0000 R=    0.0000 C=    0.0000
 XYZ=    1.4111    5.3182    0.3235 Q=    0.4100 A=    0.0000 R=    0.0000 C=    0.0000
 XYZ=    6.6479    0.8587    1.0879 Q=   -0.8200 A=    0.0000 R=    0.0000 C=    0.0000
 XYZ=    5.9172    1.5401    1.1319 Q=    0.4100 A=    0.0000 R=    0.0000 C=    0.0000
 XYZ=    6.3259   -0.0013    1.4838 Q=    0.4100 A=    0.0000 R=    0.0000 C=    0.0000
 XYZ=    1.6133   -5.4819   -0.1123 Q=   -0.8200 A=    0.0000 R=    0.0000 C=    0.0000
 XYZ=    1.7201   -4.8925    0.6885 Q=    0.4100 A=    0.0000 R=    0.0000 C=    0.0000
 XYZ=    2.4101   -5.3820   -0.7083 Q=    0.4100 A=    0.0000 R=    0.0000 C=    0.0000
 XYZ=    4.6958   -1.7206   -3.8028 Q=   -0.8200 A=    0.0000 R=    0.0000 C=    0.0000
 XYZ=    5.3143   -1.4722   -3.0572 Q=    0.4100 A=    0.0000 R=    0.0000 C=    0.0000
 XYZ=    4.2104   -0.9055   -4.1189 Q=    0.4100 A=    0.0000 R=    0.0000 C=    0.0000
 XYZ=   -6.2229   -3.0705    1.2692 Q=   -0.8200 A=    0.0000 R=    0.0000 C=    0.0000
 XYZ=   -5.7039   -3.7923    0.8113 Q=    0.4100 A=    0.0000 R=    0.0000 C=    0.0000
 XYZ=   -5.8729   -2.9462    2.1977 Q=    0.4100 A=    0.0000 R=    0.0000 C=    0.0000
 XYZ=    6.3018   -1.1353   -2.1796 Q=   -0.8200 A=    0.0000 R=    0.0000 C=    0.0000
 XYZ=    7.2440   -0.8580   -1.9913 Q=    0.4100 A=    0.0000 R=    0.0000 C=    0.0000
 XYZ=    5.9356   -1.6289   -1.3908 Q=    0.4100 A=    0.0000 R=    0.0000 C=    0.0000
 XYZ=    5.9262   -2.2907   -0.1687 Q=   -0.8200 A=    0.0000 R=    0.0000 C=    0.0000
 XYZ=    5.1460   -2.8658    0.0774 Q=    0.4100 A=    0.0000 R=    0.0000 C=    0.0000
 XYZ=    6.7580   -2.8457   -0.1829 Q=    0.4100 A=    0.0000 R=    0.0000 C=    0.0000
 XYZ=    5.9747   -1.1871    1.9443 Q=   -0.8200 A=    0.0000 R=    0.0000 C=    0.0000
 XYZ=    5.9330   -1.4791    0.9888 Q=    0.4100 A=    0.0000 R=    0.0000 C=    0.0000
 XYZ=    6.1150   -1.9849    2.5307 Q=    0.4100 A=    0.0000 R=    0.0000 C=    0.0000
 XYZ=    0.1890    5.6337   -0.2376 Q=   -0.8200 A=    0.0000 R=    0.0000 C=    0.0000
 XYZ=    0.5177    6.5228   -0.5562 Q=    0.4100 A=    0.0000 R=    0.0000 C=    0.0000
 XYZ=   -0.8102    5.6156   -0.2727 Q=    0.4100 A=    0.0000 R=    0.0000 C=    0.0000
 XYZ=   -5.4216   -4.7574   -0.0493 Q=   -0.8200 A=    0.0000 R=    0.0000 C=    0.0000
 XYZ=   -5.8439   -4.6806   -0.9525 Q=    0.4100 A=    0.0000 R=    0.0000 C=    0.0000
 XYZ=   -5.2763   -5.7223    0.1697 Q=    0.4100 A=    0.0000 R=    0.0000 C=    0.0000
 XYZ=    4.3654   -3.8756    0.7845 Q=   -0.8200 A=    0.0000 R=    0.0000 C=    0.0000
 XYZ=    3.4251   -3.8426    1.1231 Q=    0.4100 A=    0.0000 R=    0.0000 C=    0.0000
 XYZ=    4.4011   -4.4312   -0.0463 Q=    0.4100 A=    0.0000 R=    0.0000 C=    0.0000
 XYZ=    3.6494   -5.1177   -1.2760 Q=   -0.8200 A=    0.0000 R=    0.0000 C=    0.0000
 XYZ=    4.4401   -5.7223   -1.1799 Q=    0.4100 A=    0.0000 R=    0.0000 C=    0.0000
 XYZ=    3.7489   -4.5683   -2.1057 Q=    0.4100 A=    0.0000 R=    0.0000 C=    0.0000
 XYZ=    4.5422   -0.5520    3.8313 Q=   -0.8200 A=    0.0000 R=    0.0000 C=    0.0000
 XYZ=    4.8639    0.2745    4.2933 Q=    0.4100 A=    0.0000 R=    0.0000 C=    0.0000
 XYZ=    5.0872   -0.7067    3.0072 Q=    0.4100 A=    0.0000 R=    0.0000 C=    0.0000
 XYZ=    4.3077   -3.9010   -3.2283 Q=   -0.8200 A=    0.0000 R=    0.0000 C=    0.0000
 XYZ=    4.6555   -2.9704   -3.3421 Q=    0.4100 A=    0.0000 R=    0.0000 C=    0.0000
 XYZ=    3.9411   -4.2286   -4.0992 Q=    0.4100 A=    0.0000 R=    0.0000 C=    0.0000
 XYZ=    2.3737    1.0415   -6.2141 Q=   -0.8200 A=    0.0000 R=    0.0000 C=    0.0000
 XYZ=    2.7399    1.7841   -6.7750 Q=    0.4100 A=    0.0000 R=    0.0000 C=    0.0000
 XYZ=    1.4412    1.2662   -5.9313 Q=    0.4100 A=    0.0000 R=    0.0000 C=    0.0000
 XYZ=   -7.0835    1.0178   -0.3544 Q=   -0.8200 A=    0.0000 R=    0.0000 C=    0.0000
 XYZ=   -6.7444    0.6382   -1.2153 Q=    0.4100 A=    0.0000 R=    0.0000 C=    0.0000
 XYZ=   -6.9046    0.3720    0.3879 Q=    0.4100 A=    0.0000 R=    0.0000 C=    0.0000
 XYZ=   -6.4919   -3.3120   -4.5961 Q=   -0.8200 A=    0.0000 R=    0.0000 C=    0.0000
 XYZ=   -6.6102   -2.9721   -5.5291 Q=    0.4100 A=    0.0000 R=    0.0000 C=    0.0000
 XYZ=   -5.8961   -2.6901   -4.0878 Q=    0.4100 A=    0.0000 R=    0.0000 C=    0.0000
 XYZ=   -0.4166   -1.3502    6.5480 Q=   -0.8200 A=    0.0000 R=    0.0000 C=    0.0000
 XYZ=   -0.0473   -0.5991    6.0006 Q=    0.4100 A=    0.0000 R=    0.0000 C=    0.0000
 XYZ=   -1.2774   -1.6633    6.1466 Q=    0.4100 A=    0.0000 R=    0.0000 C=    0.0000
 XYZ=   -0.3568   -4.4488    3.6212 Q=   -0.8200 A=    0.0000 R=    0.0000 C=    0.0000
 XYZ=   -0.6259   -5.2416    3.0744 Q=    0.4100 A=    0.0000 R=    0.0000 C=    0.0000
 XYZ=    0.2930   -4.7348    4.3255 Q=    0.4100 A=    0.0000 R=    0.0000 C=    0.0000
 XYZ=   -5.4226   -2.7902    3.4950 Q=   -0.8200 A=    0.0000 R=    0.0000 C=    0.0000
 XYZ=   -5.8883   -2.4883    4.3269 Q=    0.4100 A=    0.0000 R=    0.0000 C=    0.0000
 XYZ=   -4.9224   -3.6358    3.6813 Q=    0.4100 A=    0.0000 R=    0.0000 C=    0.0000
 XYZ=    0.2520   -6.8889    0.8008 Q=   -0.8200 A=    0.0000 R=    0.0000 C=    0.0000
 XYZ=    0.8025   -6.2504    0.2629 Q=    0.4100 A=    0.0000 R=    0.0000 C=    0.0000
 XYZ=   -0.0433   -7.6466    0.2188 Q=    0.4100 A=    0.0000 R=    0.0000 C=    0.0000
 XYZ=    4.3652   -3.4657   -5.6765 Q=   -0.8200 A=    0.0000 R=    0.0000 C=    0.0000
 XYZ=    4.2353   -2.6960   -5.0514 Q=    0.4100 A=    0.0000 R=    0.0000 C=    0.0000
 XYZ=    5.2063   -3.3312   -6.2004 Q=    0.4100 A=    0.0000 R=    0.0000 C=    0.0000
 XYZ=   -1.1242   -6.3427    2.5335 Q=   -0.8200 A=    0.0000 R=    0.0000 C=    0.0000
 XYZ=   -0.4823   -6.6944    1.8520 Q=    0.4100 A=    0.0000 R=    0.0000 C=    0.0000
 XYZ=   -2.0085   -6.1692    2.1001 Q=    0.4100 A=    0.0000 R=    0.0000 C=    0.0000
 XYZ=    2.8096    6.8490    2.1565 Q=   -0.8200 A=    0.0000 R=    0.0000 C=    0.0000
 XYZ=    2.4669    6.0594    1.6474 Q=    0.4100 A=    0.0000 R=    0.0000 C=    0.0000
 XYZ=    3.3544    7.4267    1.5487 Q=    0.4100 A=    0.0000 R=    0.0000 C=    0.0000
 XYZ=    5.9476    4.2755    2.5854 Q=   -0.8200 A=    0.0000 R=    0.0000 C=    0.0000
 XYZ=    5.3084    4.9677    2.9205 Q=    0.4100 A=    0.0000 R=    0.0000 C=    0.0000
 XYZ=    5.5144    3.7476    1.8549 Q=    0.4100 A=    0.0000 R=    0.0000 C=    0.0000
 XYZ=   -2.3963   -2.0494    5.7068 Q=   -0.8200 A=    0.0000 R=    0.0000 C=    0.0000
 XYZ=   -3.0581   -1.9157    6.4445 Q=    0.4100 A=    0.0000 R=    0.0000 C=    0.0000
 XYZ=   -2.2935   -3.0273    5.5244 Q=    0.4100 A=    0.0000 R=    0.0000 C=    0.0000
 XYZ=   -4.8588    2.0085   -5.2831 Q=   -0.8200 A=    0.0000 R=    0.0000 C=    0.0000
 XYZ=   -4.7709    1.3833   -4.5076 Q=    0.4100 A=    0.0000 R=    0.0000 C=    0.0000
 XYZ=   -3.9694    2.4206   -5.4815 Q=    0.4100 A=    0.0000 R=    0.0000 C=    0.0000
 XYZ=   -4.1858   -4.7564    3.8806 Q=   -0.8200 A=    0.0000 R=    0.0000 C=    0.0000
 XYZ=   -3.3419   -4.5971    4.3929 Q=    0.4100 A=    0.0000 R=    0.0000 C=    0.0000
 XYZ=   -3.9618   -5.0894    2.9646 Q=    0.4100 A=    0.0000 R=    0.0000 C=    0.0000
 XYZ=    7.7041    1.8547   -0.8395 Q=   -0.8200 A=    0.0000 R=    0.0000 C=    0.0000
 XYZ=    6.9981    2.4076   -1.2820 Q=    0.4100 A=    0.0000 R=    0.0000 C=    0.0000
 XYZ=    7.3537    1.4977    0.0264 Q=    0.4100 A=    0.0000 R=    0.0000 C=    0.0000
 XYZ=   -2.2224    5.6685   -0.5757 Q=   -0.8200 A=    0.0000 R=    0.0000 C=    0.0000
 XYZ=   -2.9511    5.2039   -1.0789 Q=    0.4100 A=    0.0000 R=    0.0000 C=    0.0000
 XYZ=   -2.5119    5.8154    0.3702 Q=    0.4100 A=    0.0000 R=    0.0000 C=    0.0000
 XYZ=   -2.1410   -4.2165    5.2665 Q=   -0.8200 A=    0.0000 R=    0.0000 C=    0.0000
 XYZ=   -1.3986   -4.1772    4.5977 Q=    0.4100 A=    0.0000 R=    0.0000 C=    0.0000
 XYZ=   -2.0506   -5.0470    5.8163 Q=    0.4100 A=    0.0000 R=    0.0000 C=    0.0000
 XYZ=   -4.3032    4.8211   -1.6367 Q=   -0.8200 A=    0.0000 R=    0.0000 C=    0.0000
 XYZ=   -4.7955    5.4825   -1.0709 Q=    0.4100 A=    0.0000 R=    0.0000 C=    0.0000
 XYZ=   -4.8466    3.9859   -1.7225 Q=    0.4100 A=    0.0000 R=    0.0000 C=    0.0000
 XYZ=    2.2189    1.3928    6.4037 Q=   -0.8200 A=    0.0000 R=    0.0000 C=    0.0000
 XYZ=    2.6919    0.6717    6.9099 Q=    0.4100 A=    0.0000 R=    0.0000 C=    0.0000
 XYZ=    2.8866    2.0572    6.0679 Q=    0.4100 A=    0.0000 R=    0.0000 C=    0.0000
 XYZ=   -6.7062    3.2496   -0.8358 Q=   -0.8200 A=    0.0000 R=    0.0000 C=    0.0000
 XYZ=   -6.7806    2.2848   -0.5833 Q=    0.4100 A=    0.0000 R=    0.0000 C=    0.0000
 XYZ=   -7.3786    3.4614   -1.5450 Q=    0.4100 A=    0.0000 R=    0.0000 C=    0.0000
 XYZ=    3.4074   -0.9593   -7.1542 Q=   -0.8200 A=    0.0000 R=    0.0000 C=    0.0000
 XYZ=    3.2482   -1.8111   -6.6550 Q=    0.4100 A=    0.0000 R=    0.0000 C=    0.0000
 XYZ=    2.9181   -0.2125   -6.7037 Q=    0.4100 A=    0.0000 R=    0.0000 C=    0.0000
 XYZ=   -6.6385   -4.7476   -2.5671 Q=   -0.8200 A=    0.0000 R=    0.0000 C=    0.0000
 XYZ=   -7.4999   -5.1676   -2.2815 Q=    0.4100 A=    0.0000 R=    0.0000 C=    0.0000
 XYZ=   -6.7873   -4.2157   -3.4008 Q=    0.4100 A=    0.0000 R=    0.0000 C=    0.0000
 XYZ=   -6.4150    1.8320    4.9922 Q=   -0.8200 A=    0.0000 R=    0.0000 C=    0.0000
 XYZ=   -5.5986    1.3074    4.7504 Q=    0.4100 A=    0.0000 R=    0.0000 C=    0.0000
 XYZ=   -6.9806    1.2975    5.6204 Q=    0.4100 A=    0.0000 R=    0.0000 C=    0.0000
 XYZ=    3.1851   -2.3591    6.3249 Q=   -0.8200 A=    0.0000 R=    0.0000 C=    0.0000
 XYZ=    2.7787   -2.0586    5.4620 Q=    0.4100 A=    0.0000 R=    0.0000 C=    0.0000
 XYZ=    3.3008   -1.5720    6.9308 Q=    0.4100 A=    0.0000 R=    0.0000 C=    0.0000
 XYZ=   -5.3677   -0.8047    6.3736 Q=   -0.8200 A=    0.0000 R=    0.0000 C=    0.0000
 XYZ=   -4.9942   -0.2835    5.6062 Q=    0.4100 A=    0.0000 R=    0.0000 C=    0.0000
 XYZ=   -4.6176   -1.1902    6.9112 Q=    0.4100 A=    0.0000 R=    0.0000 C=    0.0000
 XYZ=    5.4219    1.4820    4.7546 Q=   -0.8200 A=    0.0000 R=    0.0000 C=    0.0000
 XYZ=    5.7601    0.9481    5.5297 Q=    0.4100 A=    0.0000 R=    0.0000 C=    0.0000
 XYZ=    4.7361    2.1360    5.0743 Q=    0.4100 A=    0.0000 R=    0.0000 C=    0.0000
 XYZ=    3.5404    6.3023   -1.1903 Q=   -0.8200 A=    0.0000 R=    0.0000 C=    0.0000
 XYZ=    3.8874    7.0225   -0.5896 Q=    0.4100 A=    0.0000 R=    0.0000 C=    0.0000
 XYZ=    4.3057    5.8634   -1.6610 Q=    0.4100 A=    0.0000 R=    0.0000 C=    0.0000
 XYZ=   -8.3285    0.0444    2.9567 Q=   -0.8200 A=    0.0000 R=    0.0000 C=    0.0000
 XYZ=   -7.5725   -0.2468    2.3705 Q=    0.4100 A=    0.0000 R=    0.0000 C=    0.0000
 XYZ=   -8.1468    0.9649    3.3024 Q=    0.4100 A=    0.0000 R=    0.0000 C=    0.0000
 XYZ=    8.4098   -0.2379   -1.5090 Q=   -0.8200 A=    0.0000 R=    0.0000 C=    0.0000
 XYZ=    7.9462    0.6360   -1.3626 Q=    0.4100 A=    0.0000 R=    0.0000 C=    0.0000
 XYZ=    8.8080   -0.5524   -0.6472 Q=    0.4100 A=    0.0000 R=    0.0000 C=    0.0000
 XYZ=   -6.8147    3.6825    1.4517 Q=   -0.8200 A=    0.0000 R=    0.0000 C=    0.0000
 XYZ=   -6.1032    4.3802    1.5356 Q=    0.4100 A=    0.0000 R=    0.0000 C=    0.0000
 XYZ=   -6.8390    3.3427    0.5115 Q=    0.4100 A=    0.0000 R=    0.0000 C=    0.0000
 XYZ=    5.5145   -2.0873    5.3168 Q=   -0.8200 A=    0.0000 R=    0.0000 C=    0.0000
 XYZ=    4.9807   -1.5486    4.6649 Q=    0.4100 A=    0.0000 R=    0.0000 C=    0.0000
 XYZ=    4.8960   -2.5537    5.9492 Q=    0.4100 A=    0.0000 R=    0.0000 C=    0.0000
 XYZ=   -2.9495    6.2567    1.7234 Q=   -0.8200 A=    0.0000 R=    0.0000 C=    0.0000
 XYZ=   -3.7746    5.7005    1.6236 Q=    0.4100 A=    0.0000 R=    0.0000 C=    0.0000
 XYZ=   -2.7042    6.3184    2.6909 Q=    0.4100 A=    0.0000 R=    0.0000 C=    0.0000
 XYZ=    4.9152   -5.0059    2.8368 Q=   -0.8200 A=    0.0000 R=    0.0000 C=    0.0000
 XYZ=    4.6847   -4.7266    1.9046 Q=    0.4100 A=    0.0000 R=    0.0000 C=    0.0000
 XYZ=    4.0747   -5.1804    3.3499 Q=    0.4100 A=    0.0000 R=    0.0000 C=    0.0000
 XYZ=    6.6296   -4.5553   -2.4433 Q=   -0.8200 A=    0.0000 R=    0.0000 C=    0.0000
 XYZ=    5.7322   -4.3262   -2.8203 Q=    0.4100 A=    0.0000 R=    0.0000 C=    0.0000
 XYZ=    7.3018   -4.5940   -3.1828 Q=    0.4100 A=    0.0000 R=    0.0000 C=    0.0000
 XYZ=    1.2718    7.4123   -1.3515 Q=   -0.8200 A=    0.0000 R=    0.0000 C=    0.0000
 XYZ=    2.0516    6.7871   -1.3164 Q=    0.4100 A=    0.0000 R=    0.0000 C=    0.0000
 XYZ=    1.1240    7.7081   -2.2953 Q=    0.4100 A=    0.0000 R=    0.0000 C=    0.0000
 XYZ=    5.3728    5.3805   -2.3805 Q=   -0.8200 A=    0.0000 R=    0.0000 C=    0.0000
 XYZ=    6.2632    5.4411   -1.9292 Q=    0.4100 A=    0.0000 R=    0.0000 C=    0.0000
 XYZ=    5.5025    5.3597   -3.3719 Q=    0.4100 A=    0.0000 R=    0.0000 C=    0.0000
 XYZ=    0.8777    2.9671    7.7101 Q=   -0.8200 A=    0.0000 R=    0.0000 C=    0.0000
 XYZ=    1.2972    2.2669    7.1324 Q=    0.4100 A=    0.0000 R=    0.0000 C=    0.0000
 XYZ=   -0.0546    2.6913    7.9443 Q=    0.4100 A=    0.0000 R=    0.0000 C=    0.0000
 XYZ=   -2.6874    2.9476   -5.5937 Q=   -0.8200 A=    0.0000 R=    0.0000 C=    0.0000
 XYZ=   -2.3865    3.6343   -4.9318 Q=    0.4100 A=    0.0000 R=    0.0000 C=    0.0000
 XYZ=   -2.6933    3.3482   -6.5100 Q=    0.4100 A=    0.0000 R=    0.0000 C=    0.0000
 XYZ=   -7.7322    2.3781    3.2481 Q=   -0.8200 A=    0.0000 R=    0.0000 C=    0.0000
 XYZ=   -7.1352    2.7352    2.5297 Q=    0.4100 A=    0.0000 R=    0.0000 C=    0.0000
 XYZ=   -7.2076    2.2659    4.0921 Q=    0.4100 A=    0.0000 R=    0.0000 C=    0.0000
 XYZ=   -5.9350   -6.9322   -3.4069 Q=   -0.8200 A=    0.0000 R=    0.0000 C=    0.0000
 XYZ=   -6.1548   -6.0846   -2.9237 Q=    0.4100 A=    0.0000 R=    0.0000 C=    0.0000
 XYZ=   -6.7367   -7.5300   -3.4125 Q=    0.4100 A=    0.0000 R=    0.0000 C=    0.0000
 XYZ=    4.0212    2.7575    6.1704 Q=   -0.8200 A=    0.0000 R=    0.0000 C=    0.0000
 XYZ=    4.6461    2.7307    6.9507 Q=    0.4100 A=    0.0000 R=    0.0000 C=    0.0000
 XYZ=    3.8209    3.7089    5.9365 Q=    0.4100 A=    0.0000 R=    0.0000 C=    0.0000
 XYZ=   -1.8991    4.9887   -4.6184 Q=   -0.8200 A=    0.0000 R=    0.0000 C=    0.0000
 XYZ=   -1.3348    5.2531   -3.8363 Q=    0.4100 A=    0.0000 R=    0.0000 C=    0.0000
 XYZ=   -2.8451    5.2701   -4.4571 Q=    0.4100 A=    0.0000 R=    0.0000 C=    0.0000
 XYZ=    8.9771    0.8106    2.1139 Q=   -0.8200 A=    0.0000 R=    0.0000 C=    0.0000
 XYZ=    8.9343    0.4664    3.0518 Q=    0.4100 A=    0.0000 R=    0.0000 C=    0.0000
 XYZ=    8.0513    0.8819    1.7425 Q=    0.4100 A=    0.0000 R=    0.0000 C=    0.0000
 XYZ=    1.4502    7.6367    3.8299 Q=   -0.8200 A=    0.0000 R=    0.0000 C=    0.0000
 XYZ=    0.9507    8.3447    3.3307 Q=    0.4100 A=    0.0000 R=    0.0000 C=    0.0000
 XYZ=    2.0160    7.1149    3.1913 Q=    0.4100 A=    0.0000 R=    0.0000 C=    0.0000
 XYZ=    4.7288    6.1698    3.3816 Q=   -0.8200 A=    0.0000 R=    0.0000 C=    0.0000
 XYZ=    4.6136    5.6461    4.2257 Q=    0.4100 A=    0.0000 R=    0.0000 C=    0.0000
 XYZ=    3.8308    6.4175    3.0179 Q=    0.4100 A=    0.0000 R=    0.0000 C=    0.0000
 XYZ=    5.7365    0.1261   -6.6511 Q=   -0.8200 A=    0.0000 R=    0.0000 C=    0.0000
 XYZ=    6.2071    0.3268   -5.7919 Q=    0.4100 A=    0.0000 R=    0.0000 C=    0.0000
 XYZ=    4.7629   -0.0163   -6.4725 Q=    0.4100 A=    0.0000 R=    0.0000 C=    0.0000
 XYZ=   -5.1510    5.3623    1.7085 Q=   -0.8200 A=    0.0000 R=    0.0000 C=    0.0000
 XYZ=   -5.4406    5.7774    0.8460 Q=    0.4100 A=    0.0000 R=    0.0000 C=    0.0000
 XYZ=   -5.6204    5.8115    2.4687 Q=    0.4100 A=    0.0000 R=    0.0000 C=    0.0000
 XYZ=    0.9595   -3.2728    6.8195 Q=   -0.8200 A=    0.0000 R=    0.0000 C=    0.0000
 XYZ=    1.9378   -3.1867    6.6308 Q=    0.4100 A=    0.0000 R=    0.0000 C=    0.0000
 XYZ=    0.5176   -2.3836    6.7010 Q=    0.4100 A=    0.0000 R=    0.0000 C=    0.0000
 XYZ=   -3.7351   -7.6642    1.6114 Q=   -0.8200 A=    0.0000 R=    0.0000 C=    0.0000
 XYZ=   -4.5527   -7.4589    1.0733 Q=    0.4100 A=    0.0000 R=    0.0000 C=    0.0000
 XYZ=   -3.0519   -8.1009    1.0262 Q=    0.4100 A=    0.0000 R=    0.0000 C=    0.0000
 XYZ=   -1.8928    7.4364   -2.2961 Q=   -0.8200 A=    0.0000 R=    0.0000 C=    0.0000
 XYZ=   -1.9957    6.7293   -1.5965 Q=    0.4100 A=    0.0000 R=    0.0000 C=    0.0000
 XYZ=   -1.8490    8.3345   -1.8584 Q=    0.4100 A=    0.0000 R=    0.0000 C=    0.0000
 XYZ=   -5.6284   -7.0726    0.4410 Q=   -0.8200 A=    0.0000 R=    0.0000 C=    0.0000
 XYZ=   -6.2733   -7.1078    1.2045 Q=    0.4100 A=    0.0000 R=    0.0000 C=    0.0000
 XYZ=   -5.9886   -7.6060   -0.3243 Q=    0.4100 A=    0.0000 R=    0.0000 C=    0.0000
 XYZ=   -5.5999   -5.6935   -5.3464 Q=   -0.8200 A=    0.0000 R=    0.0000 C=    0.0000
 XYZ=   -5.9479   -4.7698   -5.1859 Q=    0.4100 A=    0.0000 R=    0.0000 C=    0.0000
 XYZ=   -5.7333   -6.2473   -4.5245 Q=    0.4100 A=    0.0000 R=    0.0000 C=    0.0000
 XYZ=    7.2813    1.2963   -4.4556 Q=   -0.8200 A=    0.0000 R=    0.0000 C=    0.0000
 XYZ=    7.8686    2.0855   -4.2756 Q=    0.4100 A=    0.0000 R=    0.0000 C=    0.0000
 XYZ=    7.8452    0.4759   -4.5505 Q=    0.4100 A=    0.0000 R=    0.0000 C=    0.0000
 XYZ=    6.3699   -3.0426    3.4251 Q=   -0.8200 A=    0.0000 R=    0.0000 C=    0.0000
 XYZ=    6.1581   -2.7541    4.3589 Q=    0.4100 A=    0.0000 R=    0.0000 C=    0.0000
 XYZ=    5.7959   -3.8238    3.1794 Q=    0.4100 A=    0.0000 R=    0.0000 C=    0.0000
 XYZ=   -8.3764   -4.9470    1.8799 Q=   -0.8200 A=    0.0000 R=    0.0000 C=    0.0000
 XYZ=   -9.0004   -5.3843    1.2322 Q=    0.4100 A=    0.0000 R=    0.0000 C=    0.0000
 XYZ=   -7.9156   -4.1803    1.4328 Q=    0.4100 A=    0.0000 R=    0.0000 C=    0.0000
 XYZ=    7.1036    2.9112    4.0906 Q=   -0.8200 A=    0.0000 R=    0.0000 C=    0.0000
 XYZ=    6.6651    3.5044    3.4154 Q=    0.4100 A=    0.0000 R=    0.0000 C=    0.0000
 XYZ=    6.4597    2.2028    4.3800 Q=    0.4100 A=    0.0000 R=    0.0000 C=    0.0000
 XYZ=   -9.4808    1.0005   -0.4363 Q=   -0.8200 A=    0.0000 R=    0.0000 C=    0.0000
 XYZ=   -9.7018    1.9059   -0.7989 Q=    0.4100 A=    0.0000 R=    0.0000 C=    0.0000
 XYZ=   -8.4877    0.8972   -0.3805 Q=    0.4100 A=    0.0000 R=    0.0000 C=    0.0000
 XYZ=   -1.5964    8.3162    1.3361 Q=   -0.8200 A=    0.0000 R=    0.0000 C=    0.0000
 XYZ=   -2.1073    9.0622    1.7632 Q=    0.4100 A=    0.0000 R=    0.0000 C=    0.0000
 XYZ=   -2.1308    7.4727    1.3898 Q=    0.4100 A=    0.0000 R=    0.0000 C=    0.0000
 XYZ=    7.8385   -3.6208   -0.5354 Q=   -0.8200 A=    0.0000 R=    0.0000 C=    0.0000
 XYZ=    8.7945   -3.6953   -0.8192 Q=    0.4100 A=    0.0000 R=    0.0000 C=    0.0000
 XYZ=    7.2473   -3.9755   -1.2597 Q=    0.4100 A=    0.0000 R=    0.0000 C=    0.0000
 XYZ=    3.4755   -4.9299   -7.5551 Q=   -0.8200 A=    0.0000 R=    0.0000 C=    0.0000
 XYZ=    4.0556   -4.6979   -8.3359 Q=    0.4100 A=    0.0000 R=    0.0000 C=    0.0000
 XYZ=    3.7986   -4.4430   -6.7436 Q=    0.4100 A=    0.0000 R=    0.0000 C=    0.0000
 XYZ=   -4.2075    5.4048   -3.9688 Q=   -0.8200 A=    0.0000 R=    0.0000 C=    0.0000
 XYZ=   -4.2127    5.2712   -2.9777 Q=    0.4100 A=    0.0000 R=    0.0000 C=    0.0000
 XYZ=   -4.8971    4.8144   -4.3882 Q=    0.4100 A=    0.0000 R=    0.0000 C=    0.0000
 XYZ=    4.0039    5.0521    5.5589 Q=   -0.8200 A=    0.0000 R=    0.0000 C=    0.0000
 XYZ=    4.6413    5.3068    6.2861 Q=    0.4100 A=    0.0000 R=    0.0000 C=    0.0000
 XYZ=    3.1325    5.5222    5.6996 Q=    0.4100 A=    0.0000 R=    0.0000 C=    0.0000
 XYZ=   -6.6610   -2.4371    5.5057 Q=   -0.8200 A=    0.0000 R=    0.0000 C=    0.0000
 XYZ=   -7.5656   -2.0216    5.4105 Q=    0.4100 A=    0.0000 R=    0.0000 C=    0.0000
 XYZ=   -6.0425   -1.7904    5.9521 Q=    0.4100 A=    0.0000 R=    0.0000 C=    0.0000
 XYZ=    8.8624    3.9640   -0.8114 Q=   -0.8200 A=    0.0000 R=    0.0000 C=    0.0000
 XYZ=    8.4530    3.0517   -0.8271 Q=    0.4100 A=    0.0000 R=    0.0000 C=    0.0000
 XYZ=    9.1910    4.1660    0.1112 Q=    0.4100 A=    0.0000 R=    0.0000 C=    0.0000
 XYZ=   -1.7745   -0.6976    8.3117 Q=   -0.8200 A=    0.0000 R=    0.0000 C=    0.0000
 XYZ=   -1.0916   -0.9301    7.6193 Q=    0.4100 A=    0.0000 R=    0.0000 C=    0.0000
 XYZ=   -1.4973   -1.0779    9.1941 Q=    0.4100 A=    0.0000 R=    0.0000 C=    0.0000
 XYZ=   -1.1177   -8.1029    4.0023 Q=   -0.8200 A=    0.0000 R=    0.0000 C=    0.0000
 XYZ=   -0.8462   -8.9216    3.4961 Q=    0.4100 A=    0.0000 R=    0.0000 C=    0.0000
 XYZ=   -1.2658   -7.3491    3.3620 Q=    0.4100 A=    0.0000 R=    0.0000 C=    0.0000
 XYZ=   -3.5851   -6.8392   -6.0368 Q=   -0.8200 A=    0.0000 R=    0.0000 C=    0.0000
 XYZ=   -3.9101   -7.2279   -6.8990 Q=    0.4100 A=    0.0000 R=    0.0000 C=    0.0000
 XYZ=   -4.3066   -6.2779   -5.6313 Q=    0.4100 A=    0.0000 R=    0.0000 C=    0.0000
 XYZ=   -1.5482   -0.2936   -9.4259 Q=   -0.8200 A=    0.0000 R=    0.0000 C=    0.0000
 XYZ=   -1.8591   -1.1173   -9.9002 Q=    0.4100 A=    0.0000 R=    0.0000 C=    0.0000
 XYZ=   -1.0187   -0.5538   -8.6184 Q=    0.4100 A=    0.0000 R=    0.0000 C=    0.0000
 XYZ=   -2.1442   -8.7358    0.1973 Q=   -0.8200 A=    0.0000 R=    0.0000 C=    0.0000
 XYZ=   -1.5767   -9.2518    0.8390 Q=    0.4100 A=    0.0000 R=    0.0000 C=    0.0000
 XYZ=   -2.3841   -9.3189   -0.5789 Q=    0.4100 A=    0.0000 R=    0.0000 C=    0.0000
 XYZ=    2.7096   -5.7137    3.7405 Q=   -0.8200 A=    0.0000 R=    0.0000 C=    0.0000
 XYZ=    2.1185   -5.4218    4.4925 Q=    0.4100 A=    0.0000 R=    0.0000 C=    0.0000
 XYZ=    2.4270   -6.6204    3.4272 Q=    0.4100 A=    0.0000 R=    0.0000 C=    0.0000
 XYZ=   -5.7625   -5.9115    5.1968 Q=   -0.8200 A=    0.0000 R=    0.0000 C=    0.0000
 XYZ=   -5.2156   -5.4194    4.5194 Q=    0.4100 A=    0.0000 R=    0.0000 C=    0.0000
 XYZ=   -6.4544   -5.2973    5.5763 Q=    0.4100 A=    0.0000 R=    0.0000 C=    0.0000
 XYZ=    1.9704    6.3172    5.9064 Q=   -0.8200 A=    0.0000 R=    0.0000 C=    0.0000
 XYZ=    1.8856    6.9581    5.1434 Q=    0.4100 A=    0.0000 R=    0.0000 C=    0.0000
 XYZ=    1.0592    6.0456    6.2164 Q=    0.4100 A=    0.0000 R=    0.0000 C=    0.0000
 XYZ=    8.0872   -3.8446    1.8441 Q=   -0.8200 A=    0.0000 R=    0.0000 C=    0.0000
 XYZ=    7.4462   -3.4156    2.4806 Q=    0.4100 A=    0.0000 R=    0.0000 C=    0.0000
 XYZ=    7.7734   -3.6982    0.9059 Q=    0.4100 A=    0.0000 R=    0.0000 C=    0.0000
 XYZ=    5.8237   -6.1347   -0.8388 Q=   -0.8200 A=    0.0000 R=    0.0000 C=    0.0000
 XYZ=    6.4542   -6.6523   -0.2603 Q=    0.4100 A=    0.0000 R=    0.0000 C=    0.0000
 XYZ=    6.3341   -5.4493   -1.3581 Q=    0.4100 A=    0.0000 R=    0.0000 C=    0.0000
 XYZ=    3.2714    5.8469   -5.2983 Q=   -0.8200 A=    0.0000 R=    0.0000 C=    0.0000
 XYZ=    4.2195    5.6356   -5.0603 Q=    0.4100 A=    0.0000 R=    0.0000 C=    0.0000
 XYZ=    2.9072    6.5177   -4.6523 Q=    0.4100 A=    0.0000 R=    0.0000 C=    0.0000
 XYZ=    1.0033   -5.2317    5.3667 Q=   -0.8200 A=    0.0000 R=    0.0000 C=    0.0000
 XYZ=    0.5555   -6.0919    5.6108 Q=    0.4100 A=    0.0000 R=    0.0000 C=    0.0000
 XYZ=    0.7998   -4.5413    6.0611 Q=    0.4100 A=    0.0000 R=    0.0000 C=    0.0000
 XYZ=    3.8144   -0.2656    7.4563 Q=   -0.8200 A=    0.0000 R=    0.0000 C=    0.0000
 XYZ=    3.9801   -0.2290    8.4418 Q=    0.4100 A=    0.0000 R=    0.0000 C=    0.0000
 XYZ=    4.6541   -0.0277    6.9681 Q=    0.4100 A=    0.0000 R=    0.0000 C=    0.0000
 XYZ=   -2.0056   -5.6235   -7.4949 Q=   -0.8200 A=    0.0000 R=    0.0000 C=    0.0000
 XYZ=   -1.0795   -5.9949   -7.4279 Q=    0.4100 A=    0.0000 R=    0.0000 C=    0.0000
 XYZ=   -2.5565   -5.9621   -6.7320 Q=    0.4100 A=    0.0000 R=    0.0000 C=    0.0000
 XYZ=   -5.9075    4.1258   -4.9865 Q=   -0.8200 A=    0.0000 R=    0.0000 C=    0.0000
 XYZ=   -6.1728    4.5840   -5.8348 Q=    0.4100 A=    0.0000 R=    0.0000 C=    0.0000
 XYZ=   -5.6896    3.1689   -5.1786 Q=    0.4100 A=    0.0000 R=    0.0000 C=    0.0000
 XYZ=    0.4426    6.3835   -5.1370 Q=   -0.8200 A=    0.0000 R=    0.0000 C=    0.0000
 XYZ=   -0.2502    6.4451   -5.8555 Q=    0.4100 A=    0.0000 R=    0.0000 C=    0.0000
 XYZ=    1.2489    5.9098   -5.4913 Q=    0.4100 A=    0.0000 R=    0.0000 C=    0.0000
 XYZ=   -3.7601   -1.8360    7.5782 Q=   -0.8200 A=    0.0000 R=    0.0000 C=    0.0000
 XYZ=   -2.9436   -1.3521    7.8932 Q=    0.4100 A=    0.0000 R=    0.0000 C=    0.0000
 XYZ=   -3.8218   -2.7210    8.0397 Q=    0.4100 A=    0.0000 R=    0.0000 C=    0.0000
 XYZ=   -5.6598   -8.4822   -1.6204 Q=   -0.8200 A=    0.0000 R=    0.0000 C=    0.0000
 XYZ=   -6.1811   -9.3084   -1.8341 Q=    0.4100 A=    0.0000 R=    0.0000 C=    0.0000
 XYZ=   -5.6282   -7.8905   -2.4260 Q=    0.4100 A=    0.0000 R=    0.0000 C=    0.0000
 XYZ=   -6.4677   -2.3385   -6.7538 Q=   -0.8200 A=    0.0000 R=    0.0000 C=    0.0000
 XYZ=   -6.2048   -2.9722   -7.4814 Q=    0.4100 A=    0.0000 R=    0.0000 C=    0.0000
 XYZ=   -6.9352   -1.5493   -7.1520 Q=    0.4100 A=    0.0000 R=    0.0000 C=    0.0000
 XYZ=    0.4603    5.3334    7.6750 Q=   -0.8200 A=    0.0000 R=    0.0000 C=    0.0000
 XYZ=    1.0985    5.8305    8.2630 Q=    0.4100 A=    0.0000 R=    0.0000 C=    0.0000
 XYZ=    0.6741    4.3569    7.7018 Q=    0.4100 A=    0.0000 R=    0.0000 C=    0.0000
 XYZ=    5.4745    5.5367   -4.7700 Q=   -0.8200 A=    0.0000 R=    0.0000 C=    0.0000
 XYZ=    6.0843    6.3248   -4.8545 Q=    0.4100 A=    0.0000 R=    0.0000 C=    0.0000
 XYZ=    5.9035    4.7369   -5.1900 Q=    0.4100 A=    0.0000 R=    0.0000 C=    0.0000
 XYZ=    6.1041    0.0615    6.4606 Q=   -0.8200 A=    0.0000 R=    0.0000 C=    0.0000
 XYZ=    6.9111   -0.0525    7.0402 Q=    0.4100 A=    0.0000 R=    0.0000 C=    0.0000
 XYZ=    5.9369   -0.7832    5.9522 Q=    0.4100 A=    0.0000 R=    0.0000 C=    0.0000
 XYZ=    9.7216   -0.8025    0.4777 Q=   -0.8200 A=    0.0000 R=    0.0000 C=    0.0000
 XYZ=    9.9523   -1.5780    1.0653 Q=    0.4100 A=    0.0000 R=    0.0000 C=    0.0000
 XYZ=    9.3287   -0.0691    1.0326 Q=    0.4100 A=    0.0000 R=    0.0000 C=    0.0000
 XYZ=    8.0420    5.3058    2.9964 Q=   -0.8200 A=    0.0000 R=    0.0000 C=    0.0000
 XYZ=    8.3725    4.8926    3.8450 Q=    0.4100 A=    0.0000 R=    0.0000 C=    0.0000
 XYZ=    7.1721    4.8857    2.7378 Q=    0.4100 A=    0.0000 R=    0.0000 C=    0.0000
 XYZ=    3.3953   -1.2865   -9.5383 Q=   -0.8200 A=    0.0000 R=    0.0000 C=    0.0000
 XYZ=    3.4299   -1.1049   -8.5555 Q=    0.4100 A=    0.0000 R=    0.0000 C=    0.0000
 XYZ=    4.1471   -1.8955   -9.7913 Q=    0.4100 A=    0.0000 R=    0.0000 C=    0.0000
 XYZ=    0.7095    9.0293    1.9171 Q=   -0.8200 A=    0.0000 R=    0.0000 C=    0.0000
 XYZ=    0.4826    9.8519    2.4386 Q=    0.4100 A=    0.0000 R=    0.0000 C=    0.0000
 XYZ=   -0.1234    8.6504    1.5135 Q=    0.4100 A=    0.0000 R=    0.0000 C=    0.0000
 XYZ=   -5.5447    2.8082   -7.3767 Q=   -0.8200 A=    0.0000 R=    0.0000 C=    0.0000
 XYZ=   -6.1925    2.3023   -7.9462 Q=    0.4100 A=    0.0000 R=    0.0000 C=    0.0000
 XYZ=   -5.3382    2.2773   -6.5547 Q=    0.4100 A=    0.0000 R=    0.0000 C=    0.0000
 XYZ=   -3.3872   -8.5793    3.7552 Q=   -0.8200 A=    0.0000 R=    0.0000 C=    0.0000
 XYZ=   -2.4639   -8.3010    4.0198 Q=    0.4100 A=    0.0000 R=    0.0000 C=    0.0000
 XYZ=   -3.6508   -8.1041    2.9157 Q=    0.4100 A=    0.0000 R=    0.0000 C=    0.0000
 XYZ=   10.1753   -0.0095   -2.8609 Q=   -0.8200 A=    0.0000 R=    0.0000 C=    0.0000
 XYZ=    9.2935   -0.1404   -2.4076 Q=    0.4100 A=    0.0000 R=    0.0000 C=    0.0000
 XYZ=   10.9139   -0.2107   -2.2175 Q=    0.4100 A=    0.0000 R=    0.0000 C=    0.0000
 XYZ=    8.7545   -0.8768   -4.5138 Q=   -0.8200 A=    0.0000 R=    0.0000 C=    0.0000
 XYZ=    9.4761   -0.4385   -3.9778 Q=    0.4100 A=    0.0000 R=    0.0000 C=    0.0000
 XYZ=    8.3875   -1.6554   -4.0048 Q=    0.4100 A=    0.0000 R=    0.0000 C=    0.0000
 XYZ=    1.9622    9.2856    0.0457 Q=   -0.8200 A=    0.0000 R=    0.0000 C=    0.0000
 XYZ=    1.4448    9.2890    0.9015 Q=    0.4100 A=    0.0000 R=    0.0000 C=    0.0000
 XYZ=    1.6458    8.5333   -0.5322 Q=    0.4100 A=    0.0000 R=    0.0000 C=    0.0000
 XYZ=    7.4362    5.7371   -1.3543 Q=   -0.8200 A=    0.0000 R=    0.0000 C=    0.0000
 XYZ=    8.0746    5.0336   -1.0421 Q=    0.4100 A=    0.0000 R=    0.0000 C=    0.0000
 XYZ=    7.5491    6.5602   -0.7977 Q=    0.4100 A=    0.0000 R=    0.0000 C=    0.0000
 XYZ=   -7.2329   -7.0360    2.1102 Q=   -0.8200 A=    0.0000 R=    0.0000 C=    0.0000
 XYZ=   -7.5655   -6.0937    2.1490 Q=    0.4100 A=    0.0000 R=    0.0000 C=    0.0000
 XYZ=   -7.0271   -7.3551    3.0353 Q=    0.4100 A=    0.0000 R=    0.0000 C=    0.0000
 XYZ=    2.5236   -7.0995   -7.0612 Q=   -0.8200 A=    0.0000 R=    0.0000 C=    0.0000
 XYZ=    2.8023   -6.1392   -7.0449 Q=    0.4100 A=    0.0000 R=    0.0000 C=    0.0000
 XYZ=    3.1496   -7.6183   -7.6434 Q=    0.4100 A=    0.0000 R=    0.0000 C=    0.0000
 XYZ=   -5.7565    6.3024   -0.4855 Q=   -0.8200 A=    0.0000 R=    0.0000 C=    0.0000
 XYZ=   -5.6413    7.2919   -0.5725 Q=    0.4100 A=    0.0000 R=    0.0000 C=    0.0000
 XYZ=   -6.5101    6.0019   -1.0703 Q=    0.4100 A=    0.0000 R=    0.0000 C=    0.0000
 XYZ=    2.2855    5.0681   -7.2410 Q=   -0.8200 A=    0.0000 R=    0.0000 C=    0.0000
 XYZ=    2.7239    5.4032   -6.4069 Q=    0.4100 A=    0.0000 R=    0.0000 C=    0.0000
 XYZ=    2.6304    4.1540   -7.4545 Q=    0.4100 A=    0.0000 R=    0.0000 C=    0.0000
 XYZ=   -8.6501   -5.5399   -1.7765 Q=   -0.8200 A=    0.0000 R=    0.0000 C=    0.0000
 XYZ=   -9.0864   -5.5177   -0.8770 Q=    0.4100 A=    0.0000 R=    0.0000 C=    0.0000
 XYZ=   -9.1461   -6.1717   -2.3721 Q=    0.4100 A=    0.0000 R=    0.0000 C=    0.0000
 XYZ=   -1.4072    8.0932    5.3285 Q=   -0.8200 A=    0.0000 R=    0.0000 C=    0.0000
 XYZ=   -2.1803    8.6653    5.0543 Q=    0.4100 A=    0.0000 R=    0.0000 C=    0.0000
 XYZ=   -1.7003    7.1384    5.3782 Q=    0.4100 A=    0.0000 R=    0.0000 C=    0.0000
 XYZ=   -6.8151    4.3980    5.9159 Q=   -0.8200 A=    0.0000 R=    0.0000 C=    0.0000
 XYZ=   -6.7653    4.1829    6.8912 Q=    0.4100 A=    0.0000 R=    0.0000 C=    0.0000
 XYZ=   -6.6003    3.5797    5.3827 Q=    0.4100 A=    0.0000 R=    0.0000 C=    0.0000
 XYZ=    1.3137   -5.0890   -8.4751 Q=   -0.8200 A=    0.0000 R=    0.0000 C=    0.0000
 XYZ=    0.6947   -5.7526   -8.0548 Q=    0.4100 A=    0.0000 R=    0.0000 C=    0.0000
 XYZ=    2.2318   -5.2029   -8.0956 Q=    0.4100 A=    0.0000 R=    0.0000 C=    0.0000
 XYZ=   -8.8570   -1.2131    5.0324 Q=   -0.8200 A=    0.0000 R=    0.0000 C=    0.0000
 XYZ=   -8.7972   -0.7329    4.1572 Q=    0.4100 A=    0.0000 R=    0.0000 C=    0.0000
 XYZ=   -9.4484   -2.0134    4.9337 Q=    0.4100 A=    0.0000 R=    0.0000 C=    0.0000
 XYZ=   -7.5905    0.4082    6.3633 Q=   -0.8200 A=    0.0000 R=    0.0000 C=    0.0000
 XYZ=   -8.1824   -0.2185    5.8563 Q=    0.4100 A=    0.0000 R=    0.0000 C=    0.0000
 XYZ=   -6.7861   -0.0862    6.6928 Q=    0.4100 A=    0.0000 R=    0.0000 C=    0.0000
 XYZ=    0.3228    8.0027   -3.4128 Q=   -0.8200 A=    0.0000 R=    0.0000 C=    0.0000
 XYZ=   -0.5937    7.8767   -3.0330 Q=    0.4100 A=    0.0000 R=    0.0000 C=    0.0000
 XYZ=    0.4617    7.3617   -4.1677 Q=    0.4100 A=    0.0000 R=    0.0000 C=    0.0000
 XYZ=    3.2440    2.9710   -7.8949 Q=   -0.8200 A=    0.0000 R=    0.0000 C=    0.0000
 XYZ=    4.2034    2.6953   -7.8344 Q=    0.4100 A=    0.0000 R=    0.0000 C=    0.0000
 XYZ=    2.8639    2.6655   -8.7679 Q=    0.4100 A=    0.0000 R=    0.0000 C=    0.0000
 XYZ=    4.1567    8.1182    0.5256 Q=   -0.8200 A=    0.0000 R=    0.0000 C=    0.0000
 XYZ=    3.4581    8.7693    0.2288 Q=    0.4100 A=    0.0000 R=    0.0000 C=    0.0000
 XYZ=    4.9685    8.6164    0.8305 Q=    0.4100 A=    0.0000 R=    0.0000 C=    0.0000
 XYZ=    5.6871    2.3356   -7.7488 Q=   -0.8200 A=    0.0000 R=    0.0000 C=    0.0000
 XYZ=    6.0039    3.0132   -7.0851 Q=    0.4100 A=    0.0000 R=    0.0000 C=    0.0000
 XYZ=    5.7789    1.4192   -7.3590 Q=    0.4100 A=    0.0000 R=    0.0000 C=    0.0000
 XYZ=    0.1014   -6.9317   -7.4345 Q=   -0.8200 A=    0.0000 R=    0.0000 C=    0.0000
 XYZ=   -0.5836   -7.3510   -6.8386 Q=    0.4100 A=    0.0000 R=    0.0000 C=    0.0000
 XYZ=    1.0056   -7.0202   -7.0166 Q=    0.4100 A=    0.0000 R=    0.0000 C=    0.0000
 XYZ=   -1.5702   -8.2320   -6.3332 Q=   -0.8200 A=    0.0000 R=    0.0000 C=    0.0000
 XYZ=   -2.3172   -7.7029   -5.9307 Q=    0.4100 A=    0.0000 R=    0.0000 C=    0.0000
 XYZ=   -1.9224   -8.7844   -7.0888 Q=    0.4100 A=    0.0000 R=    0.0000 C=    0.0000
 XYZ=   -7.5159    4.0761   -3.1617 Q=   -0.8200 A=    0.0000 R=    0.0000 C=    0.0000
 XYZ=   -6.9095    4.0133   -3.9544 Q=    0.4100 A=    0.0000 R=    0.0000 C=    0.0000
 XYZ=   -8.4365    3.7855   -3.4225 Q=    0.4100 A=    0.0000 R=    0.0000 C=    0.0000
 XYZ=  -10.4050    0.3734    1.6338 Q=   -0.8200 A=    0.0000 R=    0.0000 C=    0.0000
 XYZ=  -10.0832    0.7308    0.7570 Q=    0.4100 A=    0.0000 R=    0.0000 C=    0.0000
 XYZ=   -9.6227    0.0662    2.1758 Q=    0.4100 A=    0.0000 R=    0.0000 C=    0.0000
 XYZ=   -1.6560    9.3414   -0.7994 Q=   -0.8200 A=    0.0000 R=    0.0000 C=    0.0000
 XYZ=   -0.8473    9.8986   -0.9882 Q=    0.4100 A=    0.0000 R=    0.0000 C=    0.0000
 XYZ=   -1.5203    8.8348    0.0520 Q=    0.4100 A=    0.0000 R=    0.0000 C=    0.0000
 XYZ=   -5.8790   -5.8661   -7.6416 Q=   -0.8200 A=    0.0000 R=    0.0000 C=    0.0000
 XYZ=   -5.3190   -6.6186   -7.9884 Q=    0.4100 A=    0.0000 R=    0.0000 C=    0.0000
 XYZ=   -5.6776   -5.7196   -6.6731 Q=    0.4100 A=    0.0000 R=    0.0000 C=    0.0000
 XYZ=    6.7715    3.9364   -6.0086 Q=   -0.8200 A=    0.0000 R=    0.0000 C=    0.0000
 XYZ=    7.1916    4.5269   -6.6978 Q=    0.4100 A=    0.0000 R=    0.0000 C=    0.0000
 XYZ=    7.4804    3.5742   -5.4033 Q=    0.4100 A=    0.0000 R=    0.0000 C=    0.0000
 XYZ=    7.1311   -5.9850    2.2220 Q=   -0.8200 A=    0.0000 R=    0.0000 C=    0.0000
 XYZ=    7.6714   -5.1528    2.0971 Q=    0.4100 A=    0.0000 R=    0.0000 C=    0.0000
 XYZ=    6.2230   -5.7444    2.5648 Q=    0.4100 A=    0.0000 R=    0.0000 C=    0.0000
 XYZ=    0.1708   -3.4327   -9.8751 Q=   -0.8200 A=    0.0000 R=    0.0000 C=    0.0000
 XYZ=    0.7995   -2.7428  -10.2338 Q=    0.4100 A=    0.0000 R=    0.0000 C=    0.0000
 XYZ=    0.6425   -3.9907   -9.1923 Q=    0.4100 A=    0.0000 R=    0.0000 C=    0.0000
 XYZ=    8.4189    3.4129   -4.2799 Q=   -0.8200 A=    0.0000 R=    0.0000 C=    0.0000
 XYZ=    8.4534    4.2941   -3.8085 Q=    0.4100 A=    0.0000 R=    0.0000 C=    0.0000
 XYZ=    9.2934    2.9408   -4.1685 Q=    0.4100 A=    0.0000 R=    0.0000 C=    0.0000
 XYZ=   -1.3095    6.0573   -6.6475 Q=   -0.8200 A=    0.0000 R=    0.0000 C=    0.0000
 XYZ=   -1.5756    5.6064   -5.7955 Q=    0.4100 A=    0.0000 R=    0.0000 C=    0.0000
 XYZ=   -2.1104    6.1517   -7.2388 Q=    0.4100 A=    0.0000 R=    0.0000 C=    0.0000
 XYZ=   -8.7031    5.3658    1.9459 Q=   -0.8200 A=    0.0000 R=    0.0000 C=    0.0000
 XYZ=   -7.9036    4.8235    2.2044 Q=    0.4100 A=    0.0000 R=    0.0000 C=    0.0000
 XYZ=   -9.4611    5.1576    2.5640 Q=    0.4100 A=    0.0000 R=    0.0000 C=    0.0000
 XYZ=    6.5820    7.4521    2.9131 Q=   -0.8200 A=    0.0000 R=    0.0000 C=    0.0000
 XYZ=    5.7787    6.9334    3.2058 Q=    0.4100 A=    0.0000 R=    0.0000 C=    0.0000
 XYZ=    7.3587    6.8314    2.8060 Q=    0.4100 A=    0.0000 R=    0.0000 C=    0.0000
 XYZ=    2.2584    3.5236    9.6181 Q=   -0.8200 A=    0.0000 R=    0.0000 C=    0.0000
 XYZ=    3.2379    3.5977    9.4307 Q=    0.4100 A=    0.0000 R=    0.0000 C=    0.0000
 XYZ=    1.7796    3.2472    8.7848 Q=    0.4100 A=    0.0000 R=    0.0000 C=    0.0000
 XYZ=   -6.1329    5.8476    4.0346 Q=   -0.8200 A=    0.0000 R=    0.0000 C=    0.0000
 XYZ=   -6.8497    6.4984    3.7840 Q=    0.4100 A=    0.0000 R=    0.0000 C=    0.0000
 XYZ=   -6.4515    5.2757    4.7905 Q=    0.4100 A=    0.0000 R=    0.0000 C=    0.0000
 XYZ=   -3.1457  -10.0281   -1.6430 Q=   -0.8200 A=    0.0000 R=    0.0000 C=    0.0000
 XYZ=   -3.0065  -10.3762   -2.5700 Q=    0.4100 A=    0.0000 R=    0.0000 C=    0.0000
 XYZ=   -4.0531   -9.6131   -1.5755 Q=    0.4100 A=    0.0000 R=    0.0000 C=    0.0000
 XYZ=    8.3523    5.8565   -3.5846 Q=   -0.8200 A=    0.0000 R=    0.0000 C=    0.0000
 XYZ=    7.9605    5.7195   -2.6747 Q=    0.4100 A=    0.0000 R=    0.0000 C=    0.0000
 XYZ=    9.3209    6.0899   -3.4986 Q=    0.4100 A=    0.0000 R=    0.0000 C=    0.0000
 XYZ=   -3.0750    1.2201    9.1473 Q=   -0.8200 A=    0.0000 R=    0.0000 C=    0.0000
 XYZ=   -2.2850    0.6771    8.8624 Q=    0.4100 A=    0.0000 R=    0.0000 C=    0.0000
 XYZ=   -3.8999    0.6564    9.1039 Q=    0.4100 A=    0.0000 R=    0.0000 C=    0.0000
 XYZ=   -3.3356    7.6324   -4.1061 Q=   -0.8200 A=    0.0000 R=    0.0000 C=    0.0000
 XYZ=   -2.5890    7.4819   -3.4581 Q=    0.4100 A=    0.0000 R=    0.0000 C=    0.0000
 XYZ=   -3.9743    6.8641   -4.0631 Q=    0.4100 A=    0.0000 R=    0.0000 C=    0.0000
 XYZ=   -7.5711   -4.6575    5.9225 Q=   -0.8200 A=    0.0000 R=    0.0000 C=    0.0000
 XYZ=   -8.3819   -4.7767    5.3495 Q=    0.4100 A=    0.0000 R=    0.0000 C=    0.0000
 XYZ=   -7.2387   -3.7181    5.8383 Q=    0.4100 A=    0.0000 R=    0.0000 C=    0.0000
 XYZ=  -10.2384    2.5698    3.0660 Q=   -0.8200 A=    0.0000 R=    0.0000 C=    0.0000
 XYZ=   -9.2577    2.5422    3.2598 Q=    0.4100 A=    0.0000 R=    0.0000 C=    0.0000
 XYZ=  -10.4816    1.8055    2.4687 Q=    0.4100 A=    0.0000 R=    0.0000 C=    0.0000
 XYZ=    6.1769   -3.4393   -7.3323 Q=   -0.8200 A=    0.0000 R=    0.0000 C=    0.0000
 XYZ=    6.9114   -4.0196   -6.9804 Q=    0.4100 A=    0.0000 R=    0.0000 C=    0.0000
 XYZ=    5.8157   -3.8343   -8.1770 Q=    0.4100 A=    0.0000 R=    0.0000 C=    0.0000
 XYZ=   10.1410   -2.6088    1.7281 Q=   -0.8200 A=    0.0000 R=    0.0000 C=    0.0000
 XYZ=    9.2766   -3.0772    1.9112 Q=    0.4100 A=    0.0000 R=    0.0000 C=    0.0000
 XYZ=   10.7659   -3.2335    1.2599 Q=    0.4100 A=    0.0000 R=    0.0000 C=    0.0000
 XYZ=   -2.2783   -6.0554    6.8046 Q=   -0.8200 A=    0.0000 R=    0.0000 C=    0.0000
 XYZ=   -2.1000   -5.6850    7.7162 Q=    0.4100 A=    0.0000 R=    0.0000 C=    0.0000
 XYZ=   -3.1763   -6.4955    6.7935 Q=    0.4100 A=    0.0000 R=    0.0000 C=    0.0000
 XYZ=   -1.3014    2.8786    9.0832 Q=   -0.8200 A=    0.0000 R=    0.0000 C=    0.0000
 XYZ=   -2.0636    2.2334    9.0306 Q=    0.4100 A=    0.0000 R=    0.0000 C=    0.0000
 XYZ=   -1.0092    2.9723   10.0350 Q=    0.4100 A=    0.0000 R=    0.0000 C=    0.0000
 XYZ=    0.1679   -3.8508    8.8971 Q=   -0.8200 A=    0.0000 R=    0.0000 C=    0.0000
 XYZ=    0.7096   -3.6909    8.0718 Q=    0.4100 A=    0.0000 R=    0.0000 C=    0.0000
 XYZ=    0.6392   -4.5104    9.4825 Q=    0.4100 A=    0.0000 R=    0.0000 C=    0.0000
 XYZ=   -0.3402   -7.0118    5.8250 Q=   -0.8200 A=    0.0000 R=    0.0000 C=    0.0000
 XYZ=   -1.1352   -6.6775    6.3313 Q=    0.4100 A=    0.0000 R=    0.0000 C=    0.0000
 XYZ=   -0.6418   -7.6416    5.1090 Q=    0.4100 A=    0.0000 R=    0.0000 C=    0.0000
 XYZ=   10.7097    2.5537    1.7247 Q=   -0.8200 A=    0.0000 R=    0.0000 C=    0.0000
 XYZ=    9.9757    1.8980    1.9018 Q=    0.4100 A=    0.0000 R=    0.0000 C=    0.0000
 XYZ=   10.3147    3.4517    1.5308 Q=    0.4100 A=    0.0000 R=    0.0000 C=    0.0000
 XYZ=   -1.5496    5.1717    8.5849 Q=   -0.8200 A=    0.0000 R=    0.0000 C=    0.0000
 XYZ=   -0.7234    5.5197    8.1417 Q=    0.4100 A=    0.0000 R=    0.0000 C=    0.0000
 XYZ=   -1.4471    4.1923    8.7590 Q=    0.4100 A=    0.0000 R=    0.0000 C=    0.0000
 XYZ=    0.4860    0.5358  -10.4355 Q=   -0.8200 A=    0.0000 R=    0.0000 C=    0.0000
 XYZ=    0.9495   -0.3501  -10.4566 Q=    0.4100 A=    0.0000 R=    0.0000 C=    0.0000
 XYZ=   -0.3949    0.4400   -9.9719 Q=    0.4100 A=    0.0000 R=    0.0000 C=    0.0000
 XYZ=    0.5419    9.2215    5.4898 Q=   -0.8200 A=    0.0000 R=    0.0000 C=    0.0000
 XYZ=    1.1511    8.6166    4.9768 Q=    0.4100 A=    0.0000 R=    0.0000 C=    0.0000
 XYZ=   -0.3754    8.8243    5.5185 Q=    0.4100 A=    0.0000 R=    0.0000 C=    0.0000
 XYZ=   -4.4857    7.2567    5.3950 Q=   -0.8200 A=    0.0000 R=    0.0000 C=    0.0000
 XYZ=   -5.1855    7.6894    5.9633 Q=    0.4100 A=    0.0000 R=    0.0000 C=    0.0000
 XYZ=   -4.9106    6.5630    4.8135 Q=    0.4100 A=    0.0000 R=    0.0000 C=    0.0000
 XYZ=   -0.9290   -9.9564   -4.8080 Q=   -0.8200 A=    0.0000 R=    0.0000 C=    0.0000
 XYZ=   -0.4845   -9.4904   -4.0430 Q=    0.4100 A=    0.0000 R=    0.0000 C=    0.0000
 XYZ=   -1.1783   -9.2861   -5.5071 Q=    0.4100 A=    0.0000 R=    0.0000 C=    0.0000
 XYZ=    6.6812   -1.4695   -8.3872 Q=   -0.8200 A=    0.0000 R=    0.0000 C=    0.0000
 XYZ=    6.6812   -0.5514   -7.9907 Q=    0.4100 A=    0.0000 R=    0.0000 C=    0.0000
 XYZ=    6.4779   -2.1404   -7.6741 Q=    0.4100 A=    0.0000 R=    0.0000 C=    0.0000
 XYZ=   -9.3032   -5.1824    4.1619 Q=   -0.8200 A=    0.0000 R=    0.0000 C=    0.0000
 XYZ=   -8.8184   -5.0851    3.2926 Q=    0.4100 A=    0.0000 R=    0.0000 C=    0.0000
 XYZ=   -9.7910   -6.0553    4.1756 Q=    0.4100 A=    0.0000 R=    0.0000 C=    0.0000
 XYZ=    9.0214    4.1948    4.8040 Q=   -0.8200 A=    0.0000 R=    0.0000 C=    0.0000
 XYZ=    8.3480    3.5314    4.4777 Q=    0.4100 A=    0.0000 R=    0.0000 C=    0.0000
 XYZ=    9.8140    3.7103    5.1745 Q=    0.4100 A=    0.0000 R=    0.0000 C=    0.0000
 XYZ=   11.4984    0.0689   -0.8140 Q=   -0.8200 A=    0.0000 R=    0.0000 C=    0.0000
 XYZ=   12.2546   -0.0089   -0.1643 Q=    0.4100 A=    0.0000 R=    0.0000 C=    0.0000
 XYZ=   10.6375   -0.1397   -0.3500 Q=    0.4100 A=    0.0000 R=    0.0000 C=    0.0000
 XYZ=  -11.4608    0.2878   -1.5355 Q=   -0.8200 A=    0.0000 R=    0.0000 C=    0.0000
 XYZ=  -11.9719    1.1418   -1.4381 Q=    0.4100 A=    0.0000 R=    0.0000 C=    0.0000
 XYZ=  -10.5595    0.3889   -1.1142 Q=    0.4100 A=    0.0000 R=    0.0000 C=    0.0000
 XYZ=   10.7759    3.8501   -2.0946 Q=   -0.8200 A=    0.0000 R=    0.0000 C=    0.0000
 XYZ=    9.8678    3.9784   -1.6960 Q=    0.4100 A=    0.0000 R=    0.0000 C=    0.0000
 XYZ=   11.3313    3.2857   -1.4837 Q=    0.4100 A=    0.0000 R=    0.0000 C=    0.0000
 XYZ=   -6.8171   -7.7120    4.3038 Q=   -0.8200 A=    0.0000 R=    0.0000 C=    0.0000
 XYZ=   -6.4203   -6.8925    4.7174 Q=    0.4100 A=    0.0000 R=    0.0000 C=    0.0000
 XYZ=   -6.2332   -8.5001    4.4992 Q=    0.4100 A=    0.0000 R=    0.0000 C=    0.0000
 XYZ=   -5.6775   -3.7770   -8.5145 Q=   -0.8200 A=    0.0000 R=    0.0000 C=    0.0000
 XYZ=   -4.8994   -3.6692   -9.1333 Q=    0.4100 A=    0.0000 R=    0.0000 C=    0.0000
 XYZ=   -5.7974   -4.7453   -8.2953 Q=    0.4100 A=    0.0000 R=    0.0000 C=    0.0000
 XYZ=   -3.3475    3.8781   -7.8337 Q=   -0.8200 A=    0.0000 R=    0.0000 C=    0.0000
 XYZ=   -4.2630    3.4949   -7.7109 Q=    0.4100 A=    0.0000 R=    0.0000 C=    0.0000
 XYZ=   -3.3826    4.8702   -7.7136 Q=    0.4100 A=    0.0000 R=    0.0000 C=    0.0000
 XYZ=   -7.6237    6.1532   -1.9509 Q=   -0.8200 A=    0.0000 R=    0.0000 C=    0.0000
 XYZ=   -7.9622    7.0245   -2.3062 Q=    0.4100 A=    0.0000 R=    0.0000 C=    0.0000
 XYZ=   -7.6839    5.4560   -2.6653 Q=    0.4100 A=    0.0000 R=    0.0000 C=    0.0000
 XYZ=    5.8010    2.6645    7.8933 Q=   -0.8200 A=    0.0000 R=    0.0000 C=    0.0000
 XYZ=    6.3422    3.2765    7.3165 Q=    0.4100 A=    0.0000 R=    0.0000 C=    0.0000
 XYZ=    5.2872    3.2035    8.5608 Q=    0.4100 A=    0.0000 R=    0.0000 C=    0.0000
 XYZ=    9.8875    4.7414    1.2132 Q=   -0.8200 A=    0.0000 R=    0.0000 C=    0.0000
 XYZ=    9.2029    4.9721    1.9047 Q=    0.4100 A=    0.0000 R=    0.0000 C=    0.0000
 XYZ=   10.7868    5.0568    1.5165 Q=    0.4100 A=    0.0000 R=    0.0000 C=    0.0000
 XYZ=   -1.8541   -2.4809  -10.6019 Q=   -0.8200 A=    0.0000 R=    0.0000 C=    0.0000
 XYZ=   -1.0293   -2.9153  -10.2399 Q=    0.4100 A=    0.0000 R=    0.0000 C=    0.0000
 XYZ=   -1.8771   -2.5858  -11.5961 Q=    0.4100 A=    0.0000 R=    0.0000 C=    0.0000
 XYZ=   -0.8901   -9.8627    2.4115 Q=   -0.8200 A=    0.0000 R=    0.0000 C=    0.0000
 XYZ=   -0.0500  -10.4040    2.3766 Q=    0.4100 A=    0.0000 R=    0.0000 C=    0.0000
 XYZ=   -1.6689  -10.4667    2.5807 Q=    0.4100 A=    0.0000 R=    0.0000 C=    0.0000
 XYZ=    0.6152    5.4785   -8.7052 Q=   -0.8200 A=    0.0000 R=    0.0000 C=    0.0000
 XYZ=   -0.2867    5.5987   -8.2903 Q=    0.4100 A=    0.0000 R=    0.0000 C=    0.0000
 XYZ=    1.2939    5.3217   -7.9877 Q=    0.4100 A=    0.0000 R=    0.0000 C=    0.0000
 XYZ=   -2.8592   -5.9636   -9.6991 Q=   -0.8200 A=    0.0000 R=    0.0000 C=    0.0000
 XYZ=   -3.3552   -5.1596  -10.0269 Q=    0.4100 A=    0.0000 R=    0.0000 C=    0.0000
 XYZ=   -2.4473   -5.7617   -8.8105 Q=    0.4100 A=    0.0000 R=    0.0000 C=    0.0000
 XYZ=    8.4767   -4.6813   -3.9128 Q=   -0.8200 A=    0.0000 R=    0.0000 C=    0.0000
 XYZ=    8.2060   -4.8433   -4.8618 Q=    0.4100 A=    0.0000 R=    0.0000 C=    0.0000
 XYZ=    9.0785   -5.4192   -3.6073 Q=    0.4100 A=    0.0000 R=    0.0000 C=    0.0000
 XYZ=    1.4971   -1.6727  -10.8117 Q=   -0.8200 A=    0.0000 R=    0.0000 C=    0.0000
 XYZ=    2.3880   -1.6098  -10.3618 Q=    0.4100 A=    0.0000 R=    0.0000 C=    0.0000
 XYZ=    1.5586   -1.2800  -11.7293 Q=    0.4100 A=    0.0000 R=    0.0000 C=    0.0000
 XYZ=   -4.5234   -6.9001    7.0206 Q=   -0.8200 A=    0.0000 R=    0.0000 C=    0.0000
 XYZ=   -4.9785   -6.5375    6.2074 Q=    0.4100 A=    0.0000 R=    0.0000 C=    0.0000
 XYZ=   -4.8908   -6.4523    7.8358 Q=    0.4100 A=    0.0000 R=    0.0000 C=    0.0000
 XYZ=    8.6588   -2.3874   -6.5270 Q=   -0.8200 A=    0.0000 R=    0.0000 C=    0.0000
 XYZ=    8.8688   -1.6325   -5.9057 Q=    0.4100 A=    0.0000 R=    0.0000 C=    0.0000
 XYZ=    8.9649   -2.1544   -7.4501 Q=    0.4100 A=    0.0000 R=    0.0000 C=    0.0000
 XYZ=   -3.6336    6.4837    7.7287 Q=   -0.8200 A=    0.0000 R=    0.0000 C=    0.0000
 XYZ=   -3.6509    6.6900    6.7503 Q=    0.4100 A=    0.0000 R=    0.0000 C=    0.0000
 XYZ=   -2.9608    5.7654    7.9059 Q=    0.4100 A=    0.0000 R=    0.0000 C=    0.0000
 XYZ=   -2.6655    1.2879  -10.7064 Q=   -0.8200 A=    0.0000 R=    0.0000 C=    0.0000
 XYZ=   -2.2025    0.6248  -10.1182 Q=    0.4100 A=    0.0000 R=    0.0000 C=    0.0000
 XYZ=   -3.5770    0.9481  -10.9385 Q=    0.4100 A=    0.0000 R=    0.0000 C=    0.0000
 XYZ=   -1.8919   -4.8777    8.8559 Q=   -0.8200 A=    0.0000 R=    0.0000 C=    0.0000
 XYZ=   -1.0503   -4.3667    8.6808 Q=    0.4100 A=    0.0000 R=    0.0000 C=    0.0000
 XYZ=   -2.6246   -4.2409    9.0961 Q=    0.4100 A=    0.0000 R=    0.0000 C=    0.0000
 XYZ=   -9.2572    5.1917   -0.3893 Q=   -0.8200 A=    0.0000 R=    0.0000 C=    0.0000
 XYZ=   -8.5658    5.5923   -0.9905 Q=    0.4100 A=    0.0000 R=    0.0000 C=    0.0000
 XYZ=   -9.1263    5.5315    0.5420 Q=    0.4100 A=    0.0000 R=    0.0000 C=    0.0000
 XYZ=    5.7437    5.7996    6.7065 Q=   -0.8200 A=    0.0000 R=    0.0000 C=    0.0000
 XYZ=    6.2123    6.6806    6.7716 Q=    0.4100 A=    0.0000 R=    0.0000 C=    0.0000
 XYZ=    6.4202    5.0640    6.6729 Q=    0.4100 A=    0.0000 R=    0.0000 C=    0.0000
 XYZ=   10.4248    2.2720   -3.7425 Q=   -0.8200 A=    0.0000 R=    0.0000 C=    0.0000
 XYZ=   10.5801    2.8728   -2.9583 Q=    0.4100 A=    0.0000 R=    0.0000 C=    0.0000
 XYZ=   10.4645    1.3182   -3.4445 Q=    0.4100 A=    0.0000 R=    0.0000 C=    0.0000
 XYZ=    9.8861   -4.0020   -1.4717 Q=   -0.8200 A=    0.0000 R=    0.0000 C=    0.0000
 XYZ=    9.7876   -3.7668   -2.4387 Q=    0.4100 A=    0.0000 R=    0.0000 C=    0.0000
 XYZ=    9.9266   -4.9963   -1.3731 Q=    0.4100 A=    0.0000 R=    0.0000 C=    0.0000
 XYZ=    7.7460   -7.1285    0.3402 Q=   -0.8200 A=    0.0000 R=    0.0000 C=    0.0000
 XYZ=    7.5117   -6.6552    1.1894 Q=    0.4100 A=    0.0000 R=    0.0000 C=    0.0000
 XYZ=    8.2867   -7.9429    0.5507 Q=    0.4100 A=    0.0000 R=    0.0000 C=    0.0000
 XYZ=    2.1994    2.3143  -10.0215 Q=   -0.8200 A=    0.0000 R=    0.0000 C=    0.0000
 XYZ=    1.8253    3.2004  -10.2951 Q=    0.4100 A=    0.0000 R=    0.0000 C=    0.0000
 XYZ=    1.5586    1.5895  -10.2745 Q=    0.4100 A=    0.0000 R=    0.0000 C=    0.0000
 XYZ=    0.3359   10.6856   -1.0380 Q=   -0.8200 A=    0.0000 R=    0.0000 C=    0.0000
 XYZ=    0.2256   10.6297   -2.0303 Q=    0.4100 A=    0.0000 R=    0.0000 C=    0.0000
 XYZ=    1.0863   10.0897   -0.7520 Q=    0.4100 A=    0.0000 R=    0.0000 C=    0.0000
 XYZ=   -9.9999   -6.0208    0.2697 Q=   -0.8200 A=    0.0000 R=    0.0000 C=    0.0000
 XYZ=  -10.3294   -6.3534   -0.6139 Q=    0.4100 A=    0.0000 R=    0.0000 C=    0.0000
 XYZ=  -10.7761   -5.7151    0.8212 Q=    0.4100 A=    0.0000 R=    0.0000 C=    0.0000
 XYZ=   -9.2424   -8.1615    1.1640 Q=   -0.8200 A=    0.0000 R=    0.0000 C=    0.0000
 XYZ=   -9.8033   -7.3738    0.9093 Q=    0.4100 A=    0.0000 R=    0.0000 C=    0.0000
 XYZ=   -8.3913   -7.8434    1.5817 Q=    0.4100 A=    0.0000 R=    0.0000 C=    0.0000
 XYZ=  -10.1465    3.1528   -1.3297 Q=   -0.8200 A=    0.0000 R=    0.0000 C=    0.0000
 XYZ=  -11.1366    3.0126   -1.3416 Q=    0.4100 A=    0.0000 R=    0.0000 C=    0.0000
 XYZ=   -9.9306    3.9586   -0.7781 Q=    0.4100 A=    0.0000 R=    0.0000 C=    0.0000
 XYZ=    7.2327    3.9763    6.7118 Q=   -0.8200 A=    0.0000 R=    0.0000 C=    0.0000
 XYZ=    7.8114    3.9219    5.8981 Q=    0.4100 A=    0.0000 R=    0.0000 C=    0.0000
 XYZ=    7.8084    4.0638    7.5249 Q=    0.4100 A=    0.0000 R=    0.0000 C=    0.0000
 XYZ=   -0.2555   10.1824   -3.2068 Q=   -0.8200 A=    0.0000 R=    0.0000 C=    0.0000
 XYZ=   -0.8551   10.3437   -3.9908 Q=    0.4100 A=    0.0000 R=    0.0000 C=    0.0000
 XYZ=    0.2394    9.3233   -3.3369 Q=    0.4100 A=    0.0000 R=    0.0000 C=    0.0000
 XYZ=   -7.8428   -8.3448   -3.3253 Q=   -0.8200 A=    0.0000 R=    0.0000 C=    0.0000
 XYZ=   -7.4671   -9.1700   -2.9033 Q=    0.4100 A=    0.0000 R=    0.0000 C=    0.0000
 XYZ=   -8.3611   -8.5951   -4.1431 Q=    0.4100 A=    0.0000 R=    0.0000 C=    0.0000
 XYZ=   -7.9029   -0.7974   -7.9524 Q=   -0.8200 A=    0.0000 R=    0.0000 C=    0.0000
 XYZ=   -8.7733   -0.3484   -8.1546 Q=    0.4100 A=    0.0000 R=    0.0000 C=    0.0000
 XYZ=   -7.7998   -1.6028   -8.5362 Q=    0.4100 A=    0.0000 R=    0.0000 C=    0.0000
 XYZ=   -3.5447    9.0839    4.3039 Q=   -0.8200 A=    0.0000 R=    0.0000 C=    0.0000
 XYZ=   -4.0988    8.3120    4.6157 Q=    0.4100 A=    0.0000 R=    0.0000 C=    0.0000
 XYZ=   -4.0369    9.9377    4.4736 Q=    0.4100 A=    0.0000 R=    0.0000 C=    0.0000
 XYZ=   -2.9328  -11.3490    0.2637 Q=   -0.8200 A=    0.0000 R=    0.0000 C=    0.0000
 XYZ=   -3.1140  -10.8497   -0.5837 Q=    0.4100 A=    0.0000 R=    0.0000 C=    0.0000
 XYZ=   -2.1906  -12.0021    0.1136 Q=    0.4100 A=    0.0000 R=    0.0000 C=    0.0000
 XYZ=    6.3293    8.9034    1.0193 Q=   -0.8200 A=    0.0000 R=    0.0000 C=    0.0000
 XYZ=    6.8308    9.7510    1.1928 Q=    0.4100 A=    0.0000 R=    0.0000 C=    0.0000
 XYZ=    6.4349    8.2878    1.8003 Q=    0.4100 A=    0.0000 R=    0.0000 C=    0.0000
 XYZ=    7.1342    7.0567   -5.2341 Q=   -0.8200 A=    0.0000 R=    0.0000 C=    0.0000
 XYZ=    7.6651    6.6025   -4.5186 Q=    0.4100 A=    0.0000 R=    0.0000 C=    0.0000
 XYZ=    7.2159    6.5419   -6.0874 Q=    0.4100 A=    0.0000 R=    0.0000 C=    0.0000
 XYZ=   -4.0297   -3.8750  -10.2466 Q=   -0.8200 A=    0.0000 R=    0.0000 C=    0.0000
 XYZ=   -4.3380   -3.5122  -11.1260 Q=    0.4100 A=    0.0000 R=    0.0000 C=    0.0000
 XYZ=   -3.1186   -3.5183  -10.0398 Q=    0.4100 A=    0.0000 R=    0.0000 C=    0.0000
 XYZ=   -3.0424  -10.9827    2.6529 Q=   -0.8200 A=    0.0000 R=    0.0000 C=    0.0000
 XYZ=   -3.4917  -10.1307    2.9218 Q=    0.4100 A=    0.0000 R=    0.0000 C=    0.0000
 XYZ=   -3.0869  -11.0837    1.6590 Q=    0.4100 A=    0.0000 R=    0.0000 C=    0.0000
 XYZ=    7.9090    7.7241   -0.1526 Q=   -0.8200 A=    0.0000 R=    0.0000 C=    0.0000
 XYZ=    7.1578    8.2788    0.2051 Q=    0.4100 A=    0.0000 R=    0.0000 C=    0.0000
 XYZ=    8.6823    7.7625    0.4803 Q=    0.4100 A=    0.0000 R=    0.0000 C=    0.0000
 XYZ=    8.0360   -4.5672   -6.2852 Q=   -0.8200 A=    0.0000 R=    0.0000 C=    0.0000
 XYZ=    8.2550   -3.5918   -6.3092 Q=    0.4100 A=    0.0000 R=    0.0000 C=    0.0000
 XYZ=    8.7809   -5.0865   -6.7042 Q=    0.4100 A=    0.0000 R=    0.0000 C=    0.0000
 XYZ=   -6.4677    4.9856   -7.1502 Q=   -0.8200 A=    0.0000 R=    0.0000 C=    0.0000
 XYZ=   -6.1223    5.6138   -7.8474 Q=    0.4100 A=    0.0000 R=    0.0000 C=    0.0000
 XYZ=   -6.0739    4.0778   -7.2950 Q=    0.4100 A=    0.0000 R=    0.0000 C=    0.0000
 XYZ=   -7.1074    1.5146   -8.5383 Q=   -0.8200 A=    0.0000 R=    0.0000 C=    0.0000
 XYZ=   -7.9774    1.9765   -8.3655 Q=    0.4100 A=    0.0000 R=    0.0000 C=    0.0000
 XYZ=   -7.2432    0.5244   -8.5041 Q=    0.4100 A=    0.0000 R=    0.0000 C=    0.0000
 XYZ=   -9.7612    3.5786   -3.5909 Q=   -0.8200 A=    0.0000 R=    0.0000 C=    0.0000
 XYZ=  -10.0483    3.2627   -2.6865 Q=    0.4100 A=    0.0000 R=    0.0000 C=    0.0000
 XYZ=  -10.4970    3.4184   -4.2489 Q=    0.4100 A=    0.0000 R=    0.0000 C=    0.0000
 XYZ=    6.9775    0.9907    8.9760 Q=   -0.8200 A=    0.0000 R=    0.0000 C=    0.0000
 XYZ=    6.4077    1.6323    8.4624 Q=    0.4100 A=    0.0000 R=    0.0000 C=    0.0000
 XYZ=    7.7643    1.4756    9.3578 Q=    0.4100 A=    0.0000 R=    0.0000 C=    0.0000
 XYZ=    3.4288    0.5935  -11.2375 Q=   -0.8200 A=    0.0000 R=    0.0000 C=    0.0000
 XYZ=    3.0729    1.4292  -10.8190 Q=    0.4100 A=    0.0000 R=    0.0000 C=    0.0000
 XYZ=    3.5852   -0.0939  -10.5282 Q=    0.4100 A=    0.0000 R=    0.0000 C=    0.0000
 XYZ=   -3.8010    9.9788   -1.3639 Q=   -0.8200 A=    0.0000 R=    0.0000 C=    0.0000
 XYZ=   -4.1633   10.6873   -0.7583 Q=    0.4100 A=    0.0000 R=    0.0000 C=    0.0000
 XYZ=   -2.8458    9.7972   -1.1302 Q=    0.4100 A=    0.0000 R=    0.0000 C=    0.0000
 XYZ=   -2.6544    3.6183  -10.0674 Q=   -0.8200 A=    0.0000 R=    0.0000 C=    0.0000
 XYZ=   -2.9517    3.7273   -9.1189 Q=    0.4100 A=    0.0000 R=    0.0000 C=    0.0000
 XYZ=   -2.6687    2.6488  -10.3119 Q=    0.4100 A=    0.0000 R=    0.0000 C=    0.0000
 XYZ=   -0.2157   10.5547    3.3409 Q=   -0.8200 A=    0.0000 R=    0.0000 C=    0.0000
 XYZ=   -1.1828   10.5000    3.0921 Q=    0.4100 A=    0.0000 R=    0.0000 C=    0.0000
 XYZ=   -0.0615   10.0519    4.1914 Q=    0.4100 A=    0.0000 R=    0.0000 C=    0.0000
 XYZ=   -5.4761   -9.5334    4.9623 Q=   -0.8200 A=    0.0000 R=    0.0000 C=    0.0000
 XYZ=   -5.8390  -10.2249    4.3376 Q=    0.4100 A=    0.0000 R=    0.0000 C=    0.0000
 XYZ=   -4.6818   -9.0916    4.5453 Q=    0.4100 A=    0.0000 R=    0.0000 C=    0.0000
 XYZ=   -0.9535   -1.9889   10.2240 Q=   -0.8200 A=    0.0000 R=    0.0000 C=    0.0000
 XYZ=   -0.2470   -2.5774    9.8308 Q=    0.4100 A=    0.0000 R=    0.0000 C=    0.0000
 XYZ=   -1.7079   -2.5527   10.5601 Q=    0.4100 A=    0.0000 R=    0.0000 C=    0.0000
 XYZ=   -7.9707    7.2648    3.2807 Q=   -0.8200 A=    0.0000 R=    0.0000 C=    0.0000
 XYZ=   -8.4342    7.1005    4.1515 Q=    0.4100 A=    0.0000 R=    0.0000 C=    0.0000
 XYZ=   -8.2025    6.5354    2.6370 Q=    0.4100 A=    0.0000 R=    0.0000 C=    0.0000
 XYZ=   11.7550    2.4237   -0.3649 Q=   -0.8200 A=    0.0000 R=    0.0000 C=    0.0000
 XYZ=   11.7131    1.5093   -0.7674 Q=    0.4100 A=    0.0000 R=    0.0000 C=    0.0000
 XYZ=   11.2428    2.4336    0.4939 Q=    0.4100 A=    0.0000 R=    0.0000 C=    0.0000
 XYZ=   -8.6029    2.3452    7.8957 Q=   -0.8200 A=    0.0000 R=    0.0000 C=    0.0000
 XYZ=   -8.3317    1.5646    7.3325 Q=    0.4100 A=    0.0000 R=    0.0000 C=    0.0000
 XYZ=   -8.0080    3.1236    7.6950 Q=    0.4100 A=    0.0000 R=    0.0000 C=    0.0000
 XYZ=    0.8631   -8.4454   -9.2859 Q=   -0.8200 A=    0.0000 R=    0.0000 C=    0.0000
 XYZ=    0.8830   -8.0951  -10.2223 Q=    0.4100 A=    0.0000 R=    0.0000 C=    0.0000
 XYZ=    0.5472   -7.7257   -8.6675 Q=    0.4100 A=    0.0000 R=    0.0000 C=    0.0000
 XYZ=    4.6993    6.1269    8.8327 Q=   -0.8200 A=    0.0000 R=    0.0000 C=    0.0000
 XYZ=    5.1955    6.8892    9.2481 Q=    0.4100 A=    0.0000 R=    0.0000 C=    0.0000
 XYZ=    4.9492    6.0531    7.8672 Q=    0.4100 A=    0.0000 R=    0.0000 C=    0.0000
 XYZ=   -9.8209   -7.1881   -2.9122 Q=   -0.8200 A=    0.0000 R=    0.0000 C=    0.0000
 XYZ=  -10.2780   -7.3289   -3.7904 Q=    0.4100 A=    0.0000 R=    0.0000 C=    0.0000
 XYZ=   -9.0453   -7.8148   -2.8360 Q=    0.4100 A=    0.0000 R=    0.0000 C=    0.0000
 XYZ=   -8.2027    6.1323    5.7467 Q=   -0.8200 A=    0.0000 R=    0.0000 C=    0.0000
 XYZ=   -7.5887    5.3448    5.8000 Q=    0.4100 A=    0.0000 R=    0.0000 C=    0.0000
 XYZ=   -7.7094    6.9586    6.0188 Q=    0.4100 A=    0.0000 R=    0.0000 C=    0.0000
 XYZ=   -0.0231   -5.2010  -11.2367 Q=   -0.8200 A=    0.0000 R=    0.0000 C=    0.0000
 XYZ=   -0.7326   -5.7478  -10.7921 Q=    0.4100 A=    0.0000 R=    0.0000 C=    0.0000
 XYZ=    0.1541   -4.3800  -10.6939 Q=    0.4100 A=    0.0000 R=    0.0000 C=    0.0000
 XYZ=   -2.6095   10.1228    2.3320 Q=   -0.8200 A=    0.0000 R=    0.0000 C=    0.0000
 XYZ=   -3.1601    9.7749    3.0909 Q=    0.4100 A=    0.0000 R=    0.0000 C=    0.0000
 XYZ=   -2.9745   11.0042    2.0321 Q=    0.4100 A=    0.0000 R=    0.0000 C=    0.0000
 XYZ=    5.2616   -4.2839   -9.3516 Q=   -0.8200 A=    0.0000 R=    0.0000 C=    0.0000
 XYZ=    5.8233   -4.9430   -9.8516 Q=    0.4100 A=    0.0000 R=    0.0000 C=    0.0000
 XYZ=    5.3135   -3.3924   -9.8019 Q=    0.4100 A=    0.0000 R=    0.0000 C=    0.0000
 XYZ=  -10.2538   -3.2019    4.6888 Q=   -0.8200 A=    0.0000 R=    0.0000 C=    0.0000
 XYZ=   -9.8168   -4.0724    4.4625 Q=    0.4100 A=    0.0000 R=    0.0000 C=    0.0000
 XYZ=  -10.7189   -3.2817    5.5705 Q=    0.4100 A=    0.0000 R=    0.0000 C=    0.0000
 XYZ=   -4.0433   -3.5557    9.4445 Q=   -0.8200 A=    0.0000 R=    0.0000 C=    0.0000
 XYZ=   -4.5301   -4.4289    9.4195 Q=    0.4100 A=    0.0000 R=    0.0000 C=    0.0000
 XYZ=   -3.7894   -3.3425   10.3880 Q=    0.4100 A=    0.0000 R=    0.0000 C=    0.0000
 XYZ=   -5.7560    8.5600   -0.7277 Q=   -0.8200 A=    0.0000 R=    0.0000 C=    0.0000
 XYZ=   -4.9652    9.0994   -1.0172 Q=    0.4100 A=    0.0000 R=    0.0000 C=    0.0000
 XYZ=   -6.3718    9.1345   -0.1882 Q=    0.4100 A=    0.0000 R=    0.0000 C=    0.0000
 XYZ=  -12.1244   -0.9691    1.9805 Q=   -0.8200 A=    0.0000 R=    0.0000 C=    0.0000
 XYZ=  -11.4445   -0.2798    1.7302 Q=    0.4100 A=    0.0000 R=    0.0000 C=    0.0000
 XYZ=  -11.6604   -1.7847    2.3264 Q=    0.4100 A=    0.0000 R=    0.0000 C=    0.0000
 XYZ=    9.6740   -6.4449   -1.1048 Q=   -0.8200 A=    0.0000 R=    0.0000 C=    0.0000
 XYZ=    8.7744   -6.5875   -0.6921 Q=    0.4100 A=    0.0000 R=    0.0000 C=    0.0000
 XYZ=   10.3166   -7.1218   -0.7456 Q=    0.4100 A=    0.0000 R=    0.0000 C=    0.0000
 XYZ=    5.3962   -2.1285  -10.3580 Q=   -0.8200 A=    0.0000 R=    0.0000 C=    0.0000
 XYZ=    5.9617   -2.2806  -11.1687 Q=    0.4100 A=    0.0000 R=    0.0000 C=    0.0000
 XYZ=    5.9155   -1.6046   -9.6828 Q=    0.4100 A=    0.0000 R=    0.0000 C=    0.0000
 XYZ=    4.5823    3.9727    9.4027 Q=   -0.8200 A=    0.0000 R=    0.0000 C=    0.0000
 XYZ=    4.9795    3.7628   10.2962 Q=    0.4100 A=    0.0000 R=    0.0000 C=    0.0000
 XYZ=    4.7585    4.9306    9.1764 Q=    0.4100 A=    0.0000 R=    0.0000 C=    0.0000
 XYZ=  -10.4660    4.7697    3.4891 Q=   -0.8200 A=    0.0000 R=    0.0000 C=    0.0000
 XYZ=  -11.2828    5.0777    3.0011 Q=    0.4100 A=    0.0000 R=    0.0000 C=    0.0000
 XYZ=  -10.2714    3.8193    3.2466 Q=    0.4100 A=    0.0000 R=    0.0000 C=    0.0000
 XYZ=    5.1088   -0.4439    9.5813 Q=   -0.8200 A=    0.0000 R=    0.0000 C=    0.0000
 XYZ=    5.8102    0.2235    9.3310 Q=    0.4100 A=    0.0000 R=    0.0000 C=    0.0000
 XYZ=    5.5466   -1.2724    9.9304 Q=    0.4100 A=    0.0000 R=    0.0000 C=    0.0000
 XYZ=   -2.9223  -11.1403   -3.7951 Q=   -0.8200 A=    0.0000 R=    0.0000 C=    0.0000
 XYZ=   -2.0409  -10.8710   -4.1834 Q=    0.4100 A=    0.0000 R=    0.0000 C=    0.0000
 XYZ=   -3.3049  -11.8947   -4.3285 Q=    0.4100 A=    0.0000 R=    0.0000 C=    0.0000
 XYZ=   -4.3125   -7.4678   -8.4045 Q=   -0.8200 A=    0.0000 R=    0.0000 C=    0.0000
 XYZ=   -3.6582   -7.0045   -9.0022 Q=    0.4100 A=    0.0000 R=    0.0000 C=    0.0000
 XYZ=   -4.1462   -8.4535   -8.4289 Q=    0.4100 A=    0.0000 R=    0.0000 C=    0.0000
 XYZ=   -7.2508   -4.7232    8.3176 Q=   -0.8200 A=    0.0000 R=    0.0000 C=    0.0000
 XYZ=   -7.4245   -4.7737    7.3341 Q=    0.4100 A=    0.0000 R=    0.0000 C=    0.0000
 XYZ=   -7.2448   -3.7658    8.6063 Q=    0.4100 A=    0.0000 R=    0.0000 C=    0.0000
 XYZ=  -11.5542   -3.1925    2.6360 Q=   -0.8200 A=    0.0000 R=    0.0000 C=    0.0000
 XYZ=  -10.9649   -3.3385    3.4306 Q=    0.4100 A=    0.0000 R=    0.0000 C=    0.0000
 XYZ=  -11.5034   -3.9884    2.0326 Q=    0.4100 A=    0.0000 R=    0.0000 C=    0.0000
 XYZ=   -8.2599   -6.5503   -7.9435 Q=   -0.8200 A=    0.0000 R=    0.0000 C=    0.0000
 XYZ=   -7.2932   -6.2957   -7.9164 Q=    0.4100 A=    0.0000 R=    0.0000 C=    0.0000
 XYZ=   -8.7862   -5.9221   -7.3704 Q=    0.4100 A=    0.0000 R=    0.0000 C=    0.0000
 XYZ=   -6.9409  -10.2252   -2.1430 Q=   -0.8200 A=    0.0000 R=    0.0000 C=    0.0000
 XYZ=   -7.0380  -11.0503   -2.6996 Q=    0.4100 A=    0.0000 R=    0.0000 C=    0.0000
 XYZ=   -7.7365  -10.1315   -1.5444 Q=    0.4100 A=    0.0000 R=    0.0000 C=    0.0000
 XYZ=    8.7949   -7.5823    2.7982 Q=   -0.8200 A=    0.0000 R=    0.0000 C=    0.0000
 XYZ=    8.0962   -6.8843    2.6410 Q=    0.4100 A=    0.0000 R=    0.0000 C=    0.0000
 XYZ=    8.6477   -8.0058    3.6921 Q=    0.4100 A=    0.0000 R=    0.0000 C=    0.0000
 XYZ=   11.6852   -1.4402    3.3530 Q=   -0.8200 A=    0.0000 R=    0.0000 C=    0.0000
 XYZ=   11.1601   -1.9571    2.6769 Q=    0.4100 A=    0.0000 R=    0.0000 C=    0.0000
 XYZ=   11.1956   -1.4385    4.2250 Q=    0.4100 A=    0.0000 R=    0.0000 C=    0.0000
 XYZ=   -7.1861   -2.6927  -10.1036 Q=   -0.8200 A=    0.0000 R=    0.0000 C=    0.0000
 XYZ=   -6.4640   -3.2683   -9.7199 Q=    0.4100 A=    0.0000 R=    0.0000 C=    0.0000
 XYZ=   -7.8836   -3.2708  -10.5271 Q=    0.4100 A=    0.0000 R=    0.0000 C=    0.0000
 XYZ=   10.7075    5.9026   -3.1183 Q=   -0.8200 A=    0.0000 R=    0.0000 C=    0.0000
 XYZ=   11.2202    6.4918   -2.4937 Q=    0.4100 A=    0.0000 R=    0.0000 C=    0.0000
 XYZ=   10.6390    4.9839   -2.7290 Q=    0.4100 A=    0.0000 R=    0.0000 C=    0.0000
 XYZ=   -6.8590    3.8628    8.3002 Q=   -0.8200 A=    0.0000 R=    0.0000 C=    0.0000
 XYZ=   -7.1172    3.3215    9.1005 Q=    0.4100 A=    0.0000 R=    0.0000 C=    0.0000
 XYZ=   -6.3800    4.6889    8.5971 Q=    0.4100 A=    0.0000 R=    0.0000 C=    0.0000
 XYZ=    1.4389    5.6965   10.8540 Q=   -0.8200 A=    0.0000 R=    0.0000 C=    0.0000
 XYZ=    0.5408    5.7346   11.2921 Q=    0.4100 A=    0.0000 R=    0.0000 C=    0.0000
 XYZ=    1.5266    4.8386   10.3476 Q=    0.4100 A=    0.0000 R=    0.0000 C=    0.0000
 XYZ=    8.0824    8.3377    4.4703 Q=   -0.8200 A=    0.0000 R=    0.0000 C=    0.0000
 XYZ=    8.7529    7.6164    4.6439 Q=    0.4100 A=    0.0000 R=    0.0000 C=    0.0000
 XYZ=    7.3809    7.9969    3.8442 Q=    0.4100 A=    0.0000 R=    0.0000 C=    0.0000
 XYZ=   -2.6554    6.0764   10.3957 Q=   -0.8200 A=    0.0000 R=    0.0000 C=    0.0000
 XYZ=   -2.9353    6.9546   10.0077 Q=    0.4100 A=    0.0000 R=    0.0000 C=    0.0000
 XYZ=   -2.1636    5.5479    9.7037 Q=    0.4100 A=    0.0000 R=    0.0000 C=    0.0000
 XYZ=   11.7411   -3.8403    0.5140 Q=   -0.8200 A=    0.0000 R=    0.0000 C=    0.0000
 XYZ=   11.1809   -3.8176   -0.3141 Q=    0.4100 A=    0.0000 R=    0.0000 C=    0.0000
 XYZ=   11.9847   -4.7868    0.7259 Q=    0.4100 A=    0.0000 R=    0.0000 C=    0.0000
 XYZ=   -5.7530    5.7817    8.7221 Q=   -0.8200 A=    0.0000 R=    0.0000 C=    0.0000
 XYZ=   -6.2935    6.6155    8.8355 Q=    0.4100 A=    0.0000 R=    0.0000 C=    0.0000
 XYZ=   -4.9790    5.9661    8.1163 Q=    0.4100 A=    0.0000 R=    0.0000 C=    0.0000
 XYZ=   -8.7751   -9.8666   -0.5246 Q=   -0.8200 A=    0.0000 R=    0.0000 C=    0.0000
 XYZ=   -8.9175   -9.1266    0.1328 Q=    0.4100 A=    0.0000 R=    0.0000 C=    0.0000
 XYZ=   -9.6371  -10.3514   -0.6726 Q=    0.4100 A=    0.0000 R=    0.0000 C=    0.0000
 XYZ=   -3.7148    9.9492   -3.7832 Q=   -0.8200 A=    0.0000 R=    0.0000 C=    0.0000
 XYZ=   -3.8299    9.9651   -2.7900 Q=    0.4100 A=    0.0000 R=    0.0000 C=    0.0000
 XYZ=   -3.6983    9.0013   -4.1016 Q=    0.4100 A=    0.0000 R=    0.0000 C=    0.0000
 XYZ=   -0.9123    1.5507  -12.1500 Q=   -0.8200 A=    0.0000 R=    0.0000 C=    0.0000
 XYZ=   -0.2112    1.0395  -11.6528 Q=    0.4100 A=    0.0000 R=    0.0000 C=    0.0000
 XYZ=   -1.7704    1.5244  -11.6373 Q=    0.4100 A=    0.0000 R=    0.0000 C=    0.0000
 XYZ=    1.4802    2.7062   11.9054 Q=   -0.8200 A=    0.0000 R=    0.0000 C=    0.0000
 XYZ=    1.8806    2.9279   11.0163 Q=    0.4100 A=    0.0000 R=    0.0000 C=    0.0000
 XYZ=    1.7200    1.7678   12.1542 Q=    0.4100 A=    0.0000 R=    0.0000 C=    0.0000
 XYZ=    7.4711    5.8710   -7.2788 Q=   -0.8200 A=    0.0000 R=    0.0000 C=    0.0000
 XYZ=    8.4095    6.2069   -7.1983 Q=    0.4100 A=    0.0000 R=    0.0000 C=    0.0000
 XYZ=    7.0317    6.2961   -8.0702 Q=    0.4100 A=    0.0000 R=    0.0000 C=    0.0000
 XYZ=    1.2746    4.3598  -10.8016 Q=   -0.8200 A=    0.0000 R=    0.0000 C=    0.0000
 XYZ=    0.8468    4.8094  -10.0175 Q=    0.4100 A=    0.0000 R=    0.0000 C=    0.0000
 XYZ=    2.0703    4.8892  -11.0961 Q=    0.4100 A=    0.0000 R=    0.0000 C=    0.0000
 XYZ=    0.0796   -0.5545   11.7479 Q=   -0.8200 A=    0.0000 R=    0.0000 C=    0.0000
 XYZ=   -0.4011   -1.1362   11.0916 Q=    0.4100 A=    0.0000 R=    0.0000 C=    0.0000
 XYZ=   -0.5779    0.0414   12.2090 Q=    0.4100 A=    0.0000 R=    0.0000 C=    0.0000
[...]
    38  H    0.000000   0.000000   0.000000   0.000000   0.000000   0.000000
    39  O    0.000000   0.000000   0.000000   0.000000   0.000000   0.000060
    40  H    0.000000   0.000000   0.000000   0.000000   0.000000  -0.000038
    41  H    0.000000   0.000000   0.000000   0.000000   0.000000  -0.000011
    42  O    0.000000   0.000000   0.000000   0.000000   0.000000  -0.094091
    43  H    0.000000   0.000000   0.000000   0.000000   0.000000   0.001803
    44  H    0.000000   0.000000   0.000000   0.000000   0.000000   0.004997
    45  O    0.000000   0.000000   0.000000   0.000000   0.000000   0.000000
    46  H    0.000000   0.000000   0.000000   0.000000   0.000000   0.000000
    47  H    0.000000   0.000000   0.000000   0.000000   0.000000   0.000000
    48  O    0.000000   0.000000   0.000000   0.000000   0.000000   0.000294
    49  H    0.000000   0.000000   0.000000   0.000000   0.000000   0.000208
    50  H    0.000000   0.000000   0.000000   0.000000   0.000000  -0.000004
              31         32         33         34         35         36
     1  C    0.000005   0.000003   0.002094  -0.000326  -0.000580  -0.000005
     2  H    0.000000   0.000000  -0.000085   0.000002   0.000000   0.000000
     3  H    0.000000   0.000000  -0.000567   0.000007   0.000012   0.000000
     4  C    0.000061  -0.000538  -0.007074   0.000323   0.000413  -0.000470
     5  H    0.000000   0.000000   0.000002   0.000000   0.000000   0.000000
     6  C   -0.000116  -0.000929  -0.000632   0.000039   0.000076   0.000319
     7  H    0.000000   0.000003   0.000000   0.000000   0.000000   0.000001
     8  O    0.000033  -0.000487  -0.000007   0.000000   0.000000   0.000008
     9  O    0.002532   0.012118   0.000001   0.000000   0.000000   0.000047
    10  H   -0.000185  -0.000794   0.000000   0.000000   0.000000   0.000000
    11  H    0.000813  -0.001632   0.000000   0.000000   0.000000   0.000000
    12  O    0.000016   0.000019   0.000059   0.000000  -0.000009   0.000000
    13  H    0.000000   0.000000  -0.000001   0.000000   0.000000   0.000000
    14  H   -0.000001   0.000000   0.000001   0.000000   0.000000   0.000000
    15  O    0.000044  -0.000004   0.000000   0.000000   0.000000  -0.000019
    16  H    0.000001  -0.000004   0.000000   0.000000   0.000000  -0.000004
    17  H    0.000040  -0.000137   0.000000   0.000000   0.000000  -0.000016
    18  O    0.000000   0.000000   0.000000   0.000000   0.000000   0.000136
    19  H    0.000000   0.000000   0.000000   0.000000   0.000000   0.000061
    20  H    0.000000   0.000000   0.000000   0.000000   0.000000   0.000041
    21  O    0.000042   0.005364   0.000000   0.000000   0.000000  -0.000112
    22  H    0.000040  -0.000750   0.000000   0.000000   0.000000  -0.000007
    23  H    0.000000  -0.000035   0.000000   0.000000   0.000000   0.000027
    24  O    0.000000   0.000001  -0.000066   0.000000   0.000015   0.000000
    25  H    0.000000   0.000000  -0.000013   0.000000  -0.000003   0.000000
    26  H    0.000000   0.000000  -0.000004   0.000000   0.000000   0.000000
    27  O    0.000000   0.000000  -0.108318   0.003787   0.000882   0.000000
    28  H    0.000000   0.000000  -0.003789  -0.000044  -0.001053   0.000000
    29  H    0.000000   0.000000   0.000853   0.000213  -0.007770   0.000000
    30  O    0.191336   0.123025   0.000000   0.000000   0.000000  -0.000001
    31  H    0.135565  -0.000618   0.000000   0.000000   0.000000   0.000000
    32  H   -0.000618   0.216192   0.000000   0.000000   0.000000   0.000000
    33  O    0.000000   0.000000   8.979905   0.225984   0.153126   0.000000
    34  H    0.000000   0.000000   0.225984   0.191329  -0.008186   0.000000
    35  H    0.000000   0.000000   0.153126  -0.008186   0.267120   0.000000
    36  O    0.000000   0.000000   0.000000   0.000000   0.000000   8.691727
    37  H    0.000000   0.000000   0.000000   0.000000   0.000000   0.206809
    38  H    0.000000   0.000000   0.000000   0.000000   0.000000   0.229617
    39  O   -0.000002   0.000002   0.000000   0.000000   0.000000   0.000006
    40  H    0.000000   0.000000   0.000000   0.000000   0.000000   0.000000
    41  H    0.000000   0.000000   0.000000   0.000000   0.000000   0.000000
    42  O    0.001243   0.052554   0.000000   0.000000   0.000000   0.000000
    43  H   -0.000058  -0.002528   0.000000   0.000000   0.000000   0.000000
    44  H   -0.000048  -0.000708   0.000000   0.000000   0.000000  -0.000001
    45  O    0.000000   0.000000   0.000000   0.000000   0.000000  -0.000016
    46  H    0.000000   0.000000   0.000000   0.000000   0.000000  -0.000004
    47  H    0.000000   0.000000   0.000000   0.000000   0.000000  -0.000007
    48  O   -0.000002   0.000161   0.000000   0.000000   0.000000  -0.000014
    49  H    0.000000  -0.000043   0.000000   0.000000   0.000000  -0.000001
    50  H    0.000000  -0.000001   0.000000   0.000000   0.000000   0.000000
              37         38         39         40         41         42
     1  C    0.000000   0.000001   0.000065   0.000019   0.000027  -0.001802
     2  H    0.000000   0.000000   0.000000   0.000000   0.000000   0.000002
     3  H    0.000000   0.000000   0.000000   0.000000   0.000000   0.000000
     4  C    0.000013  -0.000032   0.000481   0.000279  -0.000311   0.005987
     5  H    0.000000   0.000000   0.000000   0.000000   0.000000   0.000000
     6  C   -0.000002   0.000007  -0.001077   0.000219   0.000357  -0.000015
     7  H    0.000000   0.000000  -0.000022  -0.000011  -0.000040  -0.000089
     8  O    0.000000   0.000000  -0.000084  -0.000019   0.000017  -0.004904
     9  O    0.000000  -0.000001  -0.001211  -0.000845  -0.000038  -0.024978
    10  H    0.000000   0.000000   0.000016   0.000004   0.000003   0.001183
    11  H    0.000000   0.000000  -0.000027   0.000008  -0.000007   0.005877
    12  O    0.000000   0.000000   0.000000   0.000000   0.000000  -0.000149
    13  H    0.000000   0.000000   0.000000   0.000000   0.000000   0.000002
    14  H    0.000000   0.000000   0.000000   0.000000   0.000000   0.000018
    15  O    0.000002   0.000006  -0.022142   0.003566   0.000338   0.000718
    16  H    0.000000   0.000000  -0.002231  -0.000872   0.000184  -0.000052
    17  H    0.000000   0.000000  -0.001130  -0.000221  -0.000010   0.000466
    18  O   -0.000016   0.000031  -0.120444   0.005015   0.008054   0.000002
    19  H    0.000000  -0.000005   0.003749  -0.000717  -0.003812   0.000001
    20  H    0.000001  -0.000007  -0.001276   0.000014  -0.000003   0.000000
    21  O    0.000000   0.000004   0.000052  -0.000001  -0.000008  -0.130255
    22  H    0.000000   0.000000  -0.000011   0.000000   0.000000   0.009737
    23  H    0.000000   0.000000  -0.000001   0.000000   0.000000   0.003369
    24  O    0.000000   0.000000   0.000000   0.000000   0.000000  -0.000007
    25  H    0.000000   0.000000   0.000000   0.000000   0.000000   0.000000
    26  H    0.000000   0.000000   0.000000   0.000000   0.000000   0.000000
    27  O    0.000000   0.000000   0.000000   0.000000   0.000000   0.000000
    28  H    0.000000   0.000000   0.000000   0.000000   0.000000   0.000000
    29  H    0.000000   0.000000   0.000000   0.000000   0.000000   0.000000
    30  O    0.000000   0.000000   0.000060  -0.000038  -0.000011  -0.094091
    31  H    0.000000   0.000000  -0.000002   0.000000   0.000000   0.001243
    32  H    0.000000   0.000000   0.000002   0.000000   0.000000   0.052554
    33  O    0.000000   0.000000   0.000000   0.000000   0.000000   0.000000
    34  H    0.000000   0.000000   0.000000   0.000000   0.000000   0.000000
    35  H    0.000000   0.000000   0.000000   0.000000   0.000000   0.000000
    36  O    0.206809   0.229617   0.000006   0.000000   0.000000   0.000000
    37  H    0.212367  -0.008810   0.000000   0.000000   0.000000   0.000000
    38  H   -0.008810   0.240769   0.000000   0.000000   0.000000   0.000000
    39  O    0.000000   0.000000   8.977968   0.211787   0.111924  -0.000008
    40  H    0.000000   0.000000   0.211787   0.281364  -0.001056   0.000000
    41  H    0.000000   0.000000   0.111924  -0.001056   0.259230   0.000000
    42  O    0.000000   0.000000  -0.000008   0.000000   0.000000   9.119757
    43  H    0.000000   0.000000   0.000000   0.000000   0.000000   0.182785
    44  H    0.000000   0.000000   0.000000   0.000000   0.000000   0.115824
    45  O    0.000000   0.000001  -0.003458   0.000002   0.000214   0.000000
    46  H    0.000000   0.000000   0.000513   0.000013   0.002679   0.000000
    47  H    0.000000   0.000001   0.000109   0.000000   0.000055   0.000000
    48  O    0.000000   0.000000   0.000000   0.000000   0.000000  -0.010901
    49  H    0.000000   0.000000   0.000000   0.000000   0.000000   0.007442
    50  H    0.000000   0.000000   0.000000   0.000000   0.000000  -0.000070
              43         44         45         46         47         48
     1  C    0.000096   0.000286  -0.000145   0.000095   0.000008  -0.001162
     2  H    0.000000   0.000000   0.000000   0.000000   0.000000   0.000000
     3  H    0.000000   0.000000   0.000000   0.000000   0.000000   0.000000
     4  C   -0.000392   0.000134   0.001366  -0.000204  -0.000056  -0.000844
     5  H    0.000000   0.000000  -0.000005   0.000000   0.000000   0.000000
     6  C    0.000078   0.001058  -0.001727   0.000280   0.000060   0.000840
     7  H    0.000000  -0.000017   0.000002  -0.000011   0.000000  -0.000022
     8  O   -0.000068   0.005799   0.000000   0.000002   0.000000  -0.004363
     9  O    0.000436  -0.003151   0.000008  -0.000010   0.000000   0.000314
    10  H   -0.000036  -0.000294   0.000000   0.000000   0.000000   0.000015
    11  H   -0.000262  -0.000123   0.000000   0.000000   0.000000  -0.000009
    12  O    0.000011  -0.000005   0.000000   0.000000   0.000000   0.000002
    13  H    0.000000   0.000000   0.000000   0.000000   0.000000   0.000000
    14  H   -0.000001  -0.000001   0.000000   0.000000   0.000000   0.000000
    15  O   -0.000011  -0.000182   0.000885   0.000729  -0.000005  -0.000050
    16  H    0.000000   0.000005  -0.000006   0.000009   0.000000   0.000000
    17  H   -0.000005  -0.000025   0.000010   0.000006   0.000000   0.000009
    18  O    0.000000   0.000000  -0.014728   0.022352  -0.003145  -0.000003
    19  H    0.000000   0.000000   0.000138   0.001886   0.000007   0.000000
    20  H    0.000000   0.000000   0.000635  -0.003580   0.000595   0.000000
    21  O    0.002710   0.046310  -0.000001   0.000000   0.000000  -0.009883
    22  H   -0.000268  -0.001373   0.000000   0.000000   0.000000  -0.000316
    23  H   -0.000013  -0.001529   0.000000   0.000000   0.000000  -0.000857
    24  O    0.000001   0.000000   0.000000   0.000000   0.000000   0.000001
    25  H    0.000000   0.000000   0.000000   0.000000   0.000000   0.000000
    26  H    0.000000   0.000000   0.000000   0.000000   0.000000   0.000000
    27  O    0.000000   0.000000   0.000000   0.000000   0.000000   0.000000
    28  H    0.000000   0.000000   0.000000   0.000000   0.000000   0.000000
    29  H    0.000000   0.000000   0.000000   0.000000   0.000000   0.000000
    30  O    0.001803   0.004997   0.000000   0.000000   0.000000   0.000294
    31  H   -0.000058  -0.000048   0.000000   0.000000   0.000000  -0.000002
    32  H   -0.002528  -0.000708   0.000000   0.000000   0.000000   0.000161
    33  O    0.000000   0.000000   0.000000   0.000000   0.000000   0.000000
    34  H    0.000000   0.000000   0.000000   0.000000   0.000000   0.000000
    35  H    0.000000   0.000000   0.000000   0.000000   0.000000   0.000000
    36  O    0.000000  -0.000001  -0.000016  -0.000004  -0.000007  -0.000014
    37  H    0.000000   0.000000   0.000000   0.000000   0.000000   0.000000
    38  H    0.000000   0.000000   0.000001   0.000000   0.000001   0.000000
    39  O    0.000000   0.000000  -0.003458   0.000513   0.000109   0.000000
    40  H    0.000000   0.000000   0.000002   0.000013   0.000000   0.000000
    41  H    0.000000   0.000000   0.000214   0.002679   0.000055   0.000000
    42  O    0.182785   0.115824   0.000000   0.000000   0.000000  -0.010901
    43  H    0.162065  -0.001459   0.000000   0.000000   0.000000   0.000093
    44  H   -0.001459   0.234766   0.000000   0.000000   0.000000   0.008638
    45  O    0.000000   0.000000   8.871419   0.128611   0.221304   0.000000
    46  H    0.000000   0.000000   0.128611   0.212407  -0.002445   0.000000
    47  H    0.000000   0.000000   0.221304  -0.002445   0.196253   0.000000
    48  O    0.000093   0.008638   0.000000   0.000000   0.000000   8.917329
    49  H   -0.000238   0.009528   0.000000   0.000000   0.000000   0.099873
    50  H   -0.000003  -0.000189   0.000000   0.000000   0.000000   0.209123
              49         50
     1  C    0.000079   0.000039
     2  H    0.000001   0.000000
     3  H    0.000000   0.000000
     4  C    0.002214   0.000028
     5  H    0.000000   0.000000
     6  C   -0.000400   0.000155
     7  H   -0.000015   0.000000
     8  O    0.005402   0.000197
     9  O   -0.002795  -0.000009
    10  H   -0.000018   0.000000
    11  H    0.000087   0.000001
    12  O   -0.000003   0.000000
    13  H    0.000000   0.000000
    14  H    0.000000   0.000000
    15  O   -0.000051   0.000000
    16  H    0.000000   0.000000
    17  H    0.000015   0.000000
    18  O    0.000000   0.000000
    19  H    0.000000   0.000000
    20  H    0.000000   0.000000
    21  O    0.038408   0.002198
    22  H    0.003650   0.000125
    23  H   -0.000817  -0.000349
    24  O    0.000000   0.000000
    25  H    0.000000   0.000000
    26  H    0.000000   0.000000
    27  O    0.000000   0.000000
    28  H    0.000000   0.000000
    29  H    0.000000   0.000000
    30  O    0.000208  -0.000004
    31  H    0.000000   0.000000
    32  H   -0.000043  -0.000001
    33  O    0.000000   0.000000
    34  H    0.000000   0.000000
    35  H    0.000000   0.000000
    36  O   -0.000001   0.000000
    37  H    0.000000   0.000000
    38  H    0.000000   0.000000
    39  O    0.000000   0.000000
    40  H    0.000000   0.000000
    41  H    0.000000   0.000000
    42  O    0.007442  -0.000070
    43  H   -0.000238  -0.000003
    44  H    0.009528  -0.000189
    45  O    0.000000   0.000000
    46  H    0.000000   0.000000
    47  H    0.000000   0.000000
    48  O    0.099873   0.209123
    49  H    0.222009  -0.003113
    50  H   -0.003113   0.231255
 Mulliken charges:
               1
     1  C   -0.415262
     2  H    0.258192
     3  H    0.238953
     4  C   -0.209573
     5  H    0.231757
     6  C    0.162653
     7  H    0.220478
     8  O   -0.335566
     9  O   -1.519333
    10  H    0.524700
    11  H    0.669297
    12  O   -1.084621
    13  H    0.608209
    14  H    0.514876
    15  O   -1.297454
    16  H    0.644217
    17  H    0.688303
    18  O   -1.331543
    19  H    0.624867
    20  H    0.678800
    21  O   -1.293310
    22  H    0.749037
    23  H    0.675604
    24  O   -1.184107
    25  H    0.551250
    26  H    0.608510
    27  O   -1.165614
    28  H    0.664181
    29  H    0.559330
    30  O   -1.204984
    31  H    0.669258
    32  H    0.599767
    33  O   -1.241469
    34  H    0.586873
    35  H    0.595958
    36  O   -1.128120
    37  H    0.589634
    38  H    0.538419
    39  O   -1.153610
    40  H    0.501491
    41  H    0.622214
    42  O   -1.239644
    43  H    0.655265
    44  H    0.581758
    45  O   -1.204512
    46  H    0.636672
    47  H    0.587267
    48  O   -1.208265
    49  H    0.618580
    50  H    0.560618
 Sum of Mulliken charges =   0.00000
 Mulliken charges with hydrogens summed into heavy atoms:
               1
     1  C    0.081883
     4  C    0.022184
     6  C    0.383131
     8  O   -0.335566
     9  O   -0.325336
    12  O    0.038464
    15  O    0.035065
    18  O   -0.027876
    21  O    0.131331
    24  O   -0.024347
    27  O    0.057898
    30  O    0.064042
    33  O   -0.058639
    36  O   -0.000067
    39  O   -0.029904
    42  O   -0.002622
    45  O    0.019427
    48  O   -0.029067
 Electronic spatial extent (au):  <R**2>=          13365.1601
 Charge=              0.0000 electrons
 Dipole moment (field-independent basis, Debye):
    X=             -8.0003    Y=              1.5152    Z=              2.4318  Tot=              8.4979
 Quadrupole moment (field-independent basis, Debye-Ang):
   XX=           -124.7513   YY=           -114.9774   ZZ=           -128.5709
   XY=            -37.4634   XZ=             81.0780   YZ=              9.1971
 Traceless Quadrupole moment (field-independent basis, Debye-Ang):
   XX=             -1.9847   YY=              7.7891   ZZ=             -5.8044
   XY=            -37.4634   XZ=             81.0780   YZ=              9.1971
 Octapole moment (field-independent basis, Debye-Ang**2):
  XXX=           -662.2042  YYY=            -43.0003  ZZZ=             16.1176  XYY=            -54.7269
  XXY=            135.4606  XXZ=            412.5786  XZZ=             -4.2686  YZZ=            -36.2165
  YYZ=             58.3058  XYZ=            185.2677
 Hexadecapole moment (field-independent basis, Debye-Ang**3):
 XXXX=          -7105.4255 YYYY=          -3020.5831 ZZZZ=          -2121.2129 XXXY=          -1821.9253
 XXXZ=           1910.1985 YYYX=           -571.8719 YYYZ=            267.5935 ZZZX=           1149.1587
 ZZZY=             69.3565 XXYY=          -2556.3758 XXZZ=          -2315.8876 YYZZ=           -864.3135
 XXYZ=            298.0985 YYXZ=            494.5223 ZZXY=             26.9005
 N-N= 1.095066622561D+03 E-N=-6.153516552062D+03  KE= 1.250072451047D+03
 Leave Link  601 at Fri Sep 14 19:24:37 2018, MaxMem=    33554432 cpu:         4.2
 (Enter /usr/local/pacerepov1/gaussian/G09D01LINDA/g09/l9999.exe)

 Test job not archived.
 1\1\GINC-RICH133-B13-14-L\SP\RLC-wPBE TD-FC\6-31+G(d)\C3H32O15\HOLIVEI
 RA7\14-Sep-2018\0\\#p td=(nstates=15)/6-31+g(d) lc-wpbe charge\\Acrole
 ina in Water\\0,1\C,0,0.485154,0.480443,-1.430142\H,0,1.461403,0.18777
 3,-1.055732\H,0,0.429244,0.878853,-2.437062\C,0,-0.605127,0.346563,-0.
 658432\H,0,-1.591686,0.632893,-1.012412\C,0,-0.508516,-0.199107,0.7127
 98\H,0,-1.458487,-0.272107,1.272438\O,0,0.544883,-0.561317,1.236519\O,
 0,-0.19437,-0.427435,3.068629\H,0,0.24263,0.160095,2.387559\H,0,0.1858
 6,-0.230025,3.972229\O,0,2.707099,2.697965,1.268199\H,0,2.616869,3.638
 445,0.940419\H,0,1.83541,2.220885,1.156029\O,0,-2.376311,-0.872035,3.6
 12779\H,0,-2.36211,-1.309305,4.512039\H,0,-1.44299,-0.635875,3.342259\
 O,0,-4.614861,-0.836965,2.794469\H,0,-3.62519,-0.968995,2.850719\H,0,-
 5.07969,-1.674465,3.081899\O,0,0.8532,-2.582935,2.823219\H,0,0.37877,-
 1.706485,2.905689\H,0,0.2966,-3.303395,3.236899\O,0,5.118569,2.562295,
 0.766479\H,0,5.24895,2.837805,-0.185961\H,0,4.14471,2.592315,0.991759\
 O,0,5.18999,1.287875,-3.260891\H,0,5.986939,1.325195,-3.863801\H,0,5.2
 066,0.435035,-2.738931\O,0,0.94564,0.104295,4.949129\H,0,1.41851,0.800
 125,5.489689\H,0,1.59599,-0.604705,4.676369\O,0,3.480479,0.204075,-4.2
 97901\H,0,2.92661,0.680265,-4.980961\H,0,4.19743,0.816355,-3.964511\O,
 0,-3.35353,-5.345265,1.764529\H,0,-3.70571,-6.274975,1.872519\H,0,-3.9
 0537,-4.856215,1.088979\O,0,-4.418351,0.551755,4.619149\H,0,-3.50152,0
 .942585,4.701229\H,0,-4.48065,0.022935,3.772659\O,0,2.47849,-1.619225,
 4.177489\H,0,3.353699,-1.240435,3.876509\H,0,2.05899,-2.127475,3.42532
 9\O,0,-6.64171,-0.658885,1.452409\H,0,-5.83029,-0.530085,2.022509\H,0,
 -6.67662,-1.605315,1.131329\O,0,2.25964,-4.192115,1.791259\H,0,1.74945
 ,-3.423715,2.177709\H,0,2.453619,-4.858925,2.510829\\Version=EM64L-G09
 RevD.01\State=1-A\HF=-1758.6221933\RMSD=9.050e-09\PG=C01 [X(C3H32O15)]
 \\@


 ROSE IS A RED
 TY COBB IS BLUE
 'CAUSE PETE JUST HIT
 NO. 4592.
 Job cpu time:       0 days  2 hours 40 minutes 55.6 seconds.
 File lengths (MBytes):  RWF=    792 Int=      0 D2E=      0 Chk=     96 Scr=      2
 Normal termination of Gaussian 09 at Fri Sep 14 19:24:44 2018.
