 Entering Gaussian System, Link 0=g09
 Input=Acroleina_water_15_66c.gjf
 Output=Acroleina_water_15_66c.log
 Initial command:
 /usr/local/pacerepov1/gaussian/G09D01LINDA/g09/l1.exe /nv/hp18/holiveira7/scratch/22411974/Gau-48546.inp -scrdir=/nv/hp18/holiveira7/scratch/22411974/
 Entering Link 1 = /usr/local/pacerepov1/gaussian/G09D01LINDA/g09/l1.exe PID=     48548.
  
 Copyright (c) 1988,1990,1992,1993,1995,1998,2003,2009,2013,
            Gaussian, Inc.  All Rights Reserved.
  
 This is part of the Gaussian(R) 09 program.  It is based on
 the Gaussian(R) 03 system (copyright 2003, Gaussian, Inc.),
 the Gaussian(R) 98 system (copyright 1998, Gaussian, Inc.),
 the Gaussian(R) 94 system (copyright 1995, Gaussian, Inc.),
 the Gaussian 92(TM) system (copyright 1992, Gaussian, Inc.),
 the Gaussian 90(TM) system (copyright 1990, Gaussian, Inc.),
 the Gaussian 88(TM) system (copyright 1988, Gaussian, Inc.),
 the Gaussian 86(TM) system (copyright 1986, Carnegie Mellon
 University), and the Gaussian 82(TM) system (copyright 1983,
 Carnegie Mellon University). Gaussian is a federally registered
 trademark of Gaussian, Inc.
  
 This software contains proprietary and confidential information,
 including trade secrets, belonging to Gaussian, Inc.
  
 This software is provided under written license and may be
 used, copied, transmitted, or stored only in accord with that
 written license.
  
 The following legend is applicable only to US Government
 contracts under FAR:
  
                    RESTRICTED RIGHTS LEGEND
  
 Use, reproduction and disclosure by the US Government is
 subject to restrictions as set forth in subparagraphs (a)
 and (c) of the Commercial Computer Software - Restricted
 Rights clause in FAR 52.227-19.
  
 Gaussian, Inc.
 340 Quinnipiac St., Bldg. 40, Wallingford CT 06492
  
  
 ---------------------------------------------------------------
 Warning -- This program may not be used in any manner that
 competes with the business of Gaussian, Inc. or will provide
 assistance to any competitor of Gaussian, Inc.  The licensee
 of this program is prohibited from giving any competitor of
 Gaussian, Inc. access to this program.  By using this program,
 the user acknowledges that Gaussian, Inc. is engaged in the
 business of creating and licensing software in the field of
 computational chemistry and represents and warrants to the
 licensee that it is not a competitor of Gaussian, Inc. and that
 it will not use this program in any manner prohibited above.
 ---------------------------------------------------------------
  

 Cite this work as:
 Gaussian 09, Revision D.01,
 M. J. Frisch, G. W. Trucks, H. B. Schlegel, G. E. Scuseria, 
 M. A. Robb, J. R. Cheeseman, G. Scalmani, V. Barone, B. Mennucci, 
 G. A. Petersson, H. Nakatsuji, M. Caricato, X. Li, H. P. Hratchian, 
 A. F. Izmaylov, J. Bloino, G. Zheng, J. L. Sonnenberg, M. Hada, 
 M. Ehara, K. Toyota, R. Fukuda, J. Hasegawa, M. Ishida, T. Nakajima, 
 Y. Honda, O. Kitao, H. Nakai, T. Vreven, J. A. Montgomery, Jr., 
 J. E. Peralta, F. Ogliaro, M. Bearpark, J. J. Heyd, E. Brothers, 
 K. N. Kudin, V. N. Staroverov, T. Keith, R. Kobayashi, J. Normand, 
 K. Raghavachari, A. Rendell, J. C. Burant, S. S. Iyengar, J. Tomasi, 
 M. Cossi, N. Rega, J. M. Millam, M. Klene, J. E. Knox, J. B. Cross, 
 V. Bakken, C. Adamo, J. Jaramillo, R. Gomperts, R. E. Stratmann, 
 O. Yazyev, A. J. Austin, R. Cammi, C. Pomelli, J. W. Ochterski, 
 R. L. Martin, K. Morokuma, V. G. Zakrzewski, G. A. Voth, 
 P. Salvador, J. J. Dannenberg, S. Dapprich, A. D. Daniels, 
 O. Farkas, J. B. Foresman, J. V. Ortiz, J. Cioslowski, 
 and D. J. Fox, Gaussian, Inc., Wallingford CT, 2013.
 
 ******************************************
 Gaussian 09:  EM64L-G09RevD.01 24-Apr-2013
                14-Sep-2018 
 ******************************************
 %chk=Acrolina_Din_66.chk
 %nprocshared=10
 Will use up to   10 processors via shared memory.
 -------------------------------------------
 #p td=(nstates=15)/6-31+g(d) lc-wpbe charge
 -------------------------------------------
 1/18=10,28=-2,38=1,125=101/1;
 2/12=2,17=6,18=5,40=1/2;
 3/5=1,6=6,7=11,11=9,16=1,25=1,30=1,74=-41/1,2,8,3;
 4//1;
 5/5=2,38=5/2;
 8/6=1,10=2,108=15/1;
 9/41=15,42=1,70=2/14;
 6/7=2,8=2,9=2,10=2/1;
 99/5=1,9=1/99;
 Leave Link    1 at Fri Sep 14 17:24:23 2018, MaxMem=           0 cpu:         3.7
 (Enter /usr/local/pacerepov1/gaussian/G09D01LINDA/g09/l101.exe)
 ------------------
 Acroleina in Water
 ------------------
 Symbolic Z-matrix:
 Charge =  0 Multiplicity = 1
 C                     0.48515   0.48044  -1.43014 
 H                     1.4614    0.18777  -1.05573 
 H                     0.42924   0.87885  -2.43706 
 C                    -0.60513   0.34656  -0.65843 
 H                    -1.59169   0.63289  -1.01241 
 C                    -0.50852  -0.19911   0.7128 
 H                    -1.45849  -0.27211   1.27244 
 O                     0.54488  -0.56132   1.23652 
 O                     0.7933   -1.97787   2.22042 
 H                     1.1271   -1.49023   1.4137 
 H                     1.44722  -1.87004   2.96929 
 O                     3.98973   0.72529  -0.31581 
 H                     3.575     1.57678  -0.63679 
 H                     3.27151   0.05645  -0.12388 
 O                     3.42925   2.57629  -1.52552 
 H                     4.16978   3.02562  -2.02525 
 H                     2.55241   2.81609  -1.94233 
 O                    -1.27058   3.74919  -1.70353 
 H                    -2.11598   3.2925   -1.98063 
 H                    -1.38689   4.14029  -0.79055 
 O                     1.31373   3.22673  -2.45475 
 H                     1.31633   4.06604  -2.9984 
 H                     0.39702   3.07084  -2.08678 
 O                    -3.80138  -2.49945   1.33082 
 H                    -3.55226  -1.77179   1.96996 
 H                    -3.65453  -3.38858   1.7644 
 O                    -1.33269  -2.08527   3.40237 
 H                    -1.34554  -2.92493   3.94536 
 H                    -0.42684  -1.96488   2.99618 
 O                    -3.06797  -0.68017   2.76782 
 H                    -2.82034   0.27372   2.93759 
 H                    -2.27099  -1.26403   2.92274 
 O                    -1.51279   4.31005   0.58109 
 H                    -2.51226   4.28151   0.59922 
 H                    -1.1487    3.66364   1.25164 
 O                     2.22469  -4.04034   1.74585 
 H                     1.66602  -3.21736   1.64273 
 H                     1.6543   -4.7906    2.08013 
 O                    -5.27177  -3.032    -0.24245 
 H                    -4.53342  -2.78163   0.38376 
 H                    -5.21977  -4.00991  -0.44497 
 O                    -3.44098   2.93246  -2.31539 
 H                    -3.93999   3.54267  -1.70003 
 H                    -3.82881   2.01241  -2.25916 
 O                     4.05102   4.06263   0.31999 
 H                     3.76551   3.43495  -0.40426 
 H                     4.01368   5.00248  -0.01964 
 O                    -5.46749   1.64319   0.21663 
 H                    -4.86005   2.37168   0.53349 
 H                    -5.42286   1.5822   -0.78055 
 
 NAtoms=     50 NQM=       50 NQMF=       0 NMMI=      0 NMMIF=      0
                NMic=       0 NMicF=      0.
                    Isotopes and Nuclear Properties:
 (Nuclear quadrupole moments (NQMom) in fm**2, nuclear magnetic moments (NMagM)
  in nuclear magnetons)

  Atom         1           2           3           4           5           6           7           8           9          10
 IAtWgt=          12           1           1          12           1          12           1          16          16           1
 AtmWgt=  12.0000000   1.0078250   1.0078250  12.0000000   1.0078250  12.0000000   1.0078250  15.9949146  15.9949146   1.0078250
 NucSpn=           0           1           1           0           1           0           1           0           0           1
 AtZEff=   0.0000000   0.0000000   0.0000000   0.0000000   0.0000000   0.0000000   0.0000000   0.0000000   0.0000000   0.0000000
 NQMom=    0.0000000   0.0000000   0.0000000   0.0000000   0.0000000   0.0000000   0.0000000   0.0000000   0.0000000   0.0000000
 NMagM=    0.0000000   2.7928460   2.7928460   0.0000000   2.7928460   0.0000000   2.7928460   0.0000000   0.0000000   2.7928460
 AtZNuc=   6.0000000   1.0000000   1.0000000   6.0000000   1.0000000   6.0000000   1.0000000   8.0000000   8.0000000   1.0000000

  Atom        11          12          13          14          15          16          17          18          19          20
 IAtWgt=           1          16           1           1          16           1           1          16           1           1
 AtmWgt=   1.0078250  15.9949146   1.0078250   1.0078250  15.9949146   1.0078250   1.0078250  15.9949146   1.0078250   1.0078250
 NucSpn=           1           0           1           1           0           1           1           0           1           1
 AtZEff=   0.0000000   0.0000000   0.0000000   0.0000000   0.0000000   0.0000000   0.0000000   0.0000000   0.0000000   0.0000000
 NQMom=    0.0000000   0.0000000   0.0000000   0.0000000   0.0000000   0.0000000   0.0000000   0.0000000   0.0000000   0.0000000
 NMagM=    2.7928460   0.0000000   2.7928460   2.7928460   0.0000000   2.7928460   2.7928460   0.0000000   2.7928460   2.7928460
 AtZNuc=   1.0000000   8.0000000   1.0000000   1.0000000   8.0000000   1.0000000   1.0000000   8.0000000   1.0000000   1.0000000

  Atom        21          22          23          24          25          26          27          28          29          30
 IAtWgt=          16           1           1          16           1           1          16           1           1          16
 AtmWgt=  15.9949146   1.0078250   1.0078250  15.9949146   1.0078250   1.0078250  15.9949146   1.0078250   1.0078250  15.9949146
 NucSpn=           0           1           1           0           1           1           0           1           1           0
 AtZEff=   0.0000000   0.0000000   0.0000000   0.0000000   0.0000000   0.0000000   0.0000000   0.0000000   0.0000000   0.0000000
 NQMom=    0.0000000   0.0000000   0.0000000   0.0000000   0.0000000   0.0000000   0.0000000   0.0000000   0.0000000   0.0000000
 NMagM=    0.0000000   2.7928460   2.7928460   0.0000000   2.7928460   2.7928460   0.0000000   2.7928460   2.7928460   0.0000000
 AtZNuc=   8.0000000   1.0000000   1.0000000   8.0000000   1.0000000   1.0000000   8.0000000   1.0000000   1.0000000   8.0000000

  Atom        31          32          33          34          35          36          37          38          39          40
 IAtWgt=           1           1          16           1           1          16           1           1          16           1
 AtmWgt=   1.0078250   1.0078250  15.9949146   1.0078250   1.0078250  15.9949146   1.0078250   1.0078250  15.9949146   1.0078250
 NucSpn=           1           1           0           1           1           0           1           1           0           1
 AtZEff=   0.0000000   0.0000000   0.0000000   0.0000000   0.0000000   0.0000000   0.0000000   0.0000000   0.0000000   0.0000000
 NQMom=    0.0000000   0.0000000   0.0000000   0.0000000   0.0000000   0.0000000   0.0000000   0.0000000   0.0000000   0.0000000
 NMagM=    2.7928460   2.7928460   0.0000000   2.7928460   2.7928460   0.0000000   2.7928460   2.7928460   0.0000000   2.7928460
 AtZNuc=   1.0000000   1.0000000   8.0000000   1.0000000   1.0000000   8.0000000   1.0000000   1.0000000   8.0000000   1.0000000

  Atom        41          42          43          44          45          46          47          48          49          50
 IAtWgt=           1          16           1           1          16           1           1          16           1           1
 AtmWgt=   1.0078250  15.9949146   1.0078250   1.0078250  15.9949146   1.0078250   1.0078250  15.9949146   1.0078250   1.0078250
 NucSpn=           1           0           1           1           0           1           1           0           1           1
 AtZEff=   0.0000000   0.0000000   0.0000000   0.0000000   0.0000000   0.0000000   0.0000000   0.0000000   0.0000000   0.0000000
 NQMom=    0.0000000   0.0000000   0.0000000   0.0000000   0.0000000   0.0000000   0.0000000   0.0000000   0.0000000   0.0000000
 NMagM=    2.7928460   0.0000000   2.7928460   2.7928460   0.0000000   2.7928460   2.7928460   0.0000000   2.7928460   2.7928460
 AtZNuc=   1.0000000   8.0000000   1.0000000   1.0000000   8.0000000   1.0000000   1.0000000   8.0000000   1.0000000   1.0000000
 Background charge distribution read from input stream:
 Point Charges:
 XYZ=   -5.1554    1.0062   -2.1113 Q=   -0.8200 A=    0.0000 R=    0.0000 C=    0.0000
 XYZ=   -5.6009    0.1634   -1.8091 Q=    0.4100 A=    0.0000 R=    0.0000 C=    0.0000
 XYZ=   -5.6669    1.3979   -2.8761 Q=    0.4100 A=    0.0000 R=    0.0000 C=    0.0000
 XYZ=   -3.8265    3.3568    0.6291 Q=   -0.8200 A=    0.0000 R=    0.0000 C=    0.0000
 XYZ=   -4.1653    4.0477   -0.0096 Q=    0.4100 A=    0.0000 R=    0.0000 C=    0.0000
 XYZ=   -4.1313    3.5807    1.5548 Q=    0.4100 A=    0.0000 R=    0.0000 C=    0.0000
 XYZ=   -4.9766    0.1531    3.8219 Q=   -0.8200 A=    0.0000 R=    0.0000 C=    0.0000
 XYZ=   -4.2031   -0.2426    3.3268 Q=    0.4100 A=    0.0000 R=    0.0000 C=    0.0000
 XYZ=   -5.5168   -0.5794    4.2365 Q=    0.4100 A=    0.0000 R=    0.0000 C=    0.0000
 XYZ=   -6.2044   -1.2304   -1.5146 Q=   -0.8200 A=    0.0000 R=    0.0000 C=    0.0000
 XYZ=   -6.0950   -1.5298   -2.4624 Q=    0.4100 A=    0.0000 R=    0.0000 C=    0.0000
 XYZ=   -5.7755   -1.8955   -0.9033 Q=    0.4100 A=    0.0000 R=    0.0000 C=    0.0000
 XYZ=   -6.3287    0.2583    1.7942 Q=   -0.8200 A=    0.0000 R=    0.0000 C=    0.0000
 XYZ=   -6.0316    0.6810    0.9380 Q=    0.4100 A=    0.0000 R=    0.0000 C=    0.0000
 XYZ=   -5.5913    0.3151    2.4674 Q=    0.4100 A=    0.0000 R=    0.0000 C=    0.0000
 XYZ=   -0.8778    5.6897   -2.9272 Q=   -0.8200 A=    0.0000 R=    0.0000 C=    0.0000
 XYZ=   -0.9939    4.8778   -2.3550 Q=    0.4100 A=    0.0000 R=    0.0000 C=    0.0000
 XYZ=   -0.7935    6.4984   -2.3450 Q=    0.4100 A=    0.0000 R=    0.0000 C=    0.0000
 XYZ=    2.6810    4.6261    2.2321 Q=   -0.8200 A=    0.0000 R=    0.0000 C=    0.0000
 XYZ=    2.3655    5.4785    1.8152 Q=    0.4100 A=    0.0000 R=    0.0000 C=    0.0000
 XYZ=    3.2108    4.1042    1.5634 Q=    0.4100 A=    0.0000 R=    0.0000 C=    0.0000
 XYZ=   -6.7580   -2.0420    1.3403 Q=   -0.8200 A=    0.0000 R=    0.0000 C=    0.0000
 XYZ=   -6.1160   -2.6520    0.8756 Q=    0.4100 A=    0.0000 R=    0.0000 C=    0.0000
 XYZ=   -6.3369   -1.1427    1.4587 Q=    0.4100 A=    0.0000 R=    0.0000 C=    0.0000
 XYZ=    6.4200    0.7819   -0.7121 Q=   -0.8200 A=    0.0000 R=    0.0000 C=    0.0000
 XYZ=    6.5727    1.0956   -1.6492 Q=    0.4100 A=    0.0000 R=    0.0000 C=    0.0000
 XYZ=    5.4390    0.7761   -0.5183 Q=    0.4100 A=    0.0000 R=    0.0000 C=    0.0000
 XYZ=   -0.4272    6.2481    0.3229 Q=   -0.8200 A=    0.0000 R=    0.0000 C=    0.0000
 XYZ=   -0.8833    7.0443    0.7204 Q=    0.4100 A=    0.0000 R=    0.0000 C=    0.0000
 XYZ=   -1.0227    5.4487    0.4024 Q=    0.4100 A=    0.0000 R=    0.0000 C=    0.0000
 XYZ=    2.1928   -2.0956    4.2650 Q=   -0.8200 A=    0.0000 R=    0.0000 C=    0.0000
 XYZ=    2.3990   -1.3698    4.9214 Q=    0.4100 A=    0.0000 R=    0.0000 C=    0.0000
 XYZ=    3.0466   -2.4876    3.9225 Q=    0.4100 A=    0.0000 R=    0.0000 C=    0.0000
 XYZ=    3.9499   -3.3247    3.3123 Q=   -0.8200 A=    0.0000 R=    0.0000 C=    0.0000
 XYZ=    4.7514   -3.1029    2.7569 Q=    0.4100 A=    0.0000 R=    0.0000 C=    0.0000
 XYZ=    3.2464   -3.7362    2.7329 Q=    0.4100 A=    0.0000 R=    0.0000 C=    0.0000
 XYZ=   -4.1412    4.2420   -4.3690 Q=   -0.8200 A=    0.0000 R=    0.0000 C=    0.0000
 XYZ=   -3.8697    3.7328   -3.5522 Q=    0.4100 A=    0.0000 R=    0.0000 C=    0.0000
 XYZ=   -4.4596    3.6032   -5.0694 Q=    0.4100 A=    0.0000 R=    0.0000 C=    0.0000
 XYZ=   -4.0114   -4.7634    2.0732 Q=   -0.8200 A=    0.0000 R=    0.0000 C=    0.0000
 XYZ=   -4.6526   -4.6658    2.8344 Q=    0.4100 A=    0.0000 R=    0.0000 C=    0.0000
 XYZ=   -3.3949   -5.5300    2.2530 Q=    0.4100 A=    0.0000 R=    0.0000 C=    0.0000
 XYZ=   -3.8646   -2.4983    5.3571 Q=   -0.8200 A=    0.0000 R=    0.0000 C=    0.0000
 XYZ=   -3.2341   -1.9226    4.8364 Q=    0.4100 A=    0.0000 R=    0.0000 C=    0.0000
 XYZ=   -3.3534   -3.0175    6.0420 Q=    0.4100 A=    0.0000 R=    0.0000 C=    0.0000
 XYZ=    1.2232    3.5595   -5.8076 Q=   -0.8200 A=    0.0000 R=    0.0000 C=    0.0000
 XYZ=    1.7615    3.4298   -6.6403 Q=    0.4100 A=    0.0000 R=    0.0000 C=    0.0000
 XYZ=    1.6858    3.1169   -5.0394 Q=    0.4100 A=    0.0000 R=    0.0000 C=    0.0000
 XYZ=   -4.7889    4.5092   -1.1831 Q=   -0.8200 A=    0.0000 R=    0.0000 C=    0.0000
 XYZ=   -4.5374    5.4766   -1.1544 Q=    0.4100 A=    0.0000 R=    0.0000 C=    0.0000
 XYZ=   -5.5346    4.3780   -1.8365 Q=    0.4100 A=    0.0000 R=    0.0000 C=    0.0000
 XYZ=    3.7678   -5.7332    0.7596 Q=   -0.8200 A=    0.0000 R=    0.0000 C=    0.0000
 XYZ=    3.2223   -4.9274    0.9903 Q=    0.4100 A=    0.0000 R=    0.0000 C=    0.0000
 XYZ=    4.2461   -6.0568    1.5759 Q=    0.4100 A=    0.0000 R=    0.0000 C=    0.0000
 XYZ=    5.7692    3.9844    1.8109 Q=   -0.8200 A=    0.0000 R=    0.0000 C=    0.0000
 XYZ=    5.5497    3.7359    2.7543 Q=    0.4100 A=    0.0000 R=    0.0000 C=    0.0000
 XYZ=    4.9334    3.9799    1.2620 Q=    0.4100 A=    0.0000 R=    0.0000 C=    0.0000
 XYZ=   -7.2199    3.2239    0.5628 Q=   -0.8200 A=    0.0000 R=    0.0000 C=    0.0000
 XYZ=   -6.5777    2.4898    0.3418 Q=    0.4100 A=    0.0000 R=    0.0000 C=    0.0000
 XYZ=   -7.8770    2.8983    1.2428 Q=    0.4100 A=    0.0000 R=    0.0000 C=    0.0000
 XYZ=    1.2540    5.0575   -3.7956 Q=   -0.8200 A=    0.0000 R=    0.0000 C=    0.0000
 XYZ=    0.3646    5.4482   -3.5578 Q=    0.4100 A=    0.0000 R=    0.0000 C=    0.0000
 XYZ=    1.1692    4.5237   -4.6370 Q=    0.4100 A=    0.0000 R=    0.0000 C=    0.0000
 XYZ=   -3.4739    0.3083   -5.7124 Q=   -0.8200 A=    0.0000 R=    0.0000 C=    0.0000
 XYZ=   -3.6309   -0.1648   -4.8454 Q=    0.4100 A=    0.0000 R=    0.0000 C=    0.0000
 XYZ=   -2.4988    0.5066   -5.8120 Q=    0.4100 A=    0.0000 R=    0.0000 C=    0.0000
 XYZ=    4.8703    4.3135   -2.5905 Q=   -0.8200 A=    0.0000 R=    0.0000 C=    0.0000
 XYZ=    5.1993    4.9910   -1.9326 Q=    0.4100 A=    0.0000 R=    0.0000 C=    0.0000
 XYZ=    5.6343    3.9960   -3.1522 Q=    0.4100 A=    0.0000 R=    0.0000 C=    0.0000
 XYZ=   -1.1702   -3.8690    4.9949 Q=   -0.8200 A=    0.0000 R=    0.0000 C=    0.0000
 XYZ=   -1.5808   -3.7879    5.9031 Q=    0.4100 A=    0.0000 R=    0.0000 C=    0.0000
 XYZ=   -1.0815   -4.8356    4.7543 Q=    0.4100 A=    0.0000 R=    0.0000 C=    0.0000
 XYZ=   -4.8770   -5.4414   -0.0597 Q=   -0.8200 A=    0.0000 R=    0.0000 C=    0.0000
 XYZ=   -4.2377   -6.0684   -0.5048 Q=    0.4100 A=    0.0000 R=    0.0000 C=    0.0000
 XYZ=   -4.4669   -5.0888    0.7814 Q=    0.4100 A=    0.0000 R=    0.0000 C=    0.0000
 XYZ=   -5.2262    2.3271    4.4642 Q=   -0.8200 A=    0.0000 R=    0.0000 C=    0.0000
 XYZ=   -5.3594    2.3108    5.4552 Q=    0.4100 A=    0.0000 R=    0.0000 C=    0.0000
 XYZ=   -5.2028    1.3901    4.1157 Q=    0.4100 A=    0.0000 R=    0.0000 C=    0.0000
 XYZ=   -4.3239    3.7005    2.8079 Q=   -0.8200 A=    0.0000 R=    0.0000 C=    0.0000
 XYZ=   -5.1015    4.2483    2.4992 Q=    0.4100 A=    0.0000 R=    0.0000 C=    0.0000
 XYZ=   -4.6344    3.0328    3.4846 Q=    0.4100 A=    0.0000 R=    0.0000 C=    0.0000
 XYZ=    1.8794    6.6869    1.1824 Q=   -0.8200 A=    0.0000 R=    0.0000 C=    0.0000
 XYZ=    1.6822    7.4646    1.7793 Q=    0.4100 A=    0.0000 R=    0.0000 C=    0.0000
 XYZ=    1.0290    6.3579    0.7717 Q=    0.4100 A=    0.0000 R=    0.0000 C=    0.0000
 XYZ=    2.9667    6.2598   -2.6956 Q=   -0.8200 A=    0.0000 R=    0.0000 C=    0.0000
 XYZ=    3.6400    5.5243   -2.7702 Q=    0.4100 A=    0.0000 R=    0.0000 C=    0.0000
 XYZ=    2.0798    5.9342   -3.0234 Q=    0.4100 A=    0.0000 R=    0.0000 C=    0.0000
 XYZ=   -2.1018    5.1968   -4.9492 Q=   -0.8200 A=    0.0000 R=    0.0000 C=    0.0000
 XYZ=   -1.5518    5.5846   -4.2095 Q=    0.4100 A=    0.0000 R=    0.0000 C=    0.0000
 XYZ=   -2.9308    4.7870   -4.5685 Q=    0.4100 A=    0.0000 R=    0.0000 C=    0.0000
 XYZ=   -8.5677   -0.9659   -1.9328 Q=   -0.8200 A=    0.0000 R=    0.0000 C=    0.0000
 XYZ=   -8.7636   -0.0664   -2.3235 Q=    0.4100 A=    0.0000 R=    0.0000 C=    0.0000
 XYZ=   -7.5842   -1.0529   -1.7735 Q=    0.4100 A=    0.0000 R=    0.0000 C=    0.0000
 XYZ=    3.6918    6.2298   -0.2800 Q=   -0.8200 A=    0.0000 R=    0.0000 C=    0.0000
 XYZ=    3.0344    6.5189    0.4159 Q=    0.4100 A=    0.0000 R=    0.0000 C=    0.0000
 XYZ=    3.2773    6.3153   -1.1861 Q=    0.4100 A=    0.0000 R=    0.0000 C=    0.0000
 XYZ=    1.0379   -3.4920    5.8027 Q=   -0.8200 A=    0.0000 R=    0.0000 C=    0.0000
 XYZ=    1.5819   -2.8727    5.2364 Q=    0.4100 A=    0.0000 R=    0.0000 C=    0.0000
 XYZ=    0.1041   -3.5351    5.4471 Q=    0.4100 A=    0.0000 R=    0.0000 C=    0.0000
 XYZ=   -0.9423   -6.0164    4.0792 Q=   -0.8200 A=    0.0000 R=    0.0000 C=    0.0000
 XYZ=   -0.1852   -5.9169    3.4335 Q=    0.4100 A=    0.0000 R=    0.0000 C=    0.0000
 XYZ=   -0.8647   -6.8948    4.5510 Q=    0.4100 A=    0.0000 R=    0.0000 C=    0.0000
 XYZ=    1.1422   -5.8663    2.7961 Q=   -0.8200 A=    0.0000 R=    0.0000 C=    0.0000
 XYZ=    0.7782   -6.6254    2.2563 Q=    0.4100 A=    0.0000 R=    0.0000 C=    0.0000
 XYZ=    1.8953   -6.1941    3.3666 Q=    0.4100 A=    0.0000 R=    0.0000 C=    0.0000
 XYZ=   -1.0704    3.3924   -6.2752 Q=   -0.8200 A=    0.0000 R=    0.0000 C=    0.0000
 XYZ=   -0.0757    3.4809   -6.2228 Q=    0.4100 A=    0.0000 R=    0.0000 C=    0.0000
 XYZ=   -1.4969    4.0592   -5.6640 Q=    0.4100 A=    0.0000 R=    0.0000 C=    0.0000
 XYZ=   -8.7251    0.0605    2.2729 Q=   -0.8200 A=    0.0000 R=    0.0000 C=    0.0000
 XYZ=   -7.7480    0.2173    2.1295 Q=    0.4100 A=    0.0000 R=    0.0000 C=    0.0000
 XYZ=   -9.0878   -0.4912    1.5218 Q=    0.4100 A=    0.0000 R=    0.0000 C=    0.0000
 XYZ=    2.6745    5.0019    4.5890 Q=   -0.8200 A=    0.0000 R=    0.0000 C=    0.0000
 XYZ=    2.4844    4.7152    3.6500 Q=    0.4100 A=    0.0000 R=    0.0000 C=    0.0000
 XYZ=    2.2468    4.3609    5.2264 Q=    0.4100 A=    0.0000 R=    0.0000 C=    0.0000
 XYZ=   -0.5246    7.5109   -1.5576 Q=   -0.8200 A=    0.0000 R=    0.0000 C=    0.0000
 XYZ=    0.3651    7.8481   -1.8656 Q=    0.4100 A=    0.0000 R=    0.0000 C=    0.0000
 XYZ=   -0.4073    6.9791   -0.7188 Q=    0.4100 A=    0.0000 R=    0.0000 C=    0.0000
 XYZ=    3.3982   -0.5078    5.5772 Q=   -0.8200 A=    0.0000 R=    0.0000 C=    0.0000
 XYZ=    3.7567   -0.9913    6.3757 Q=    0.4100 A=    0.0000 R=    0.0000 C=    0.0000
 XYZ=    4.1298    0.0282    5.1559 Q=    0.4100 A=    0.0000 R=    0.0000 C=    0.0000
 XYZ=   -1.3304    0.8628   -6.4957 Q=   -0.8200 A=    0.0000 R=    0.0000 C=    0.0000
 XYZ=   -1.2604    1.8558   -6.4001 Q=    0.4100 A=    0.0000 R=    0.0000 C=    0.0000
 XYZ=   -1.1163    0.6028   -7.4374 Q=    0.4100 A=    0.0000 R=    0.0000 C=    0.0000
 XYZ=   -2.5877   -6.6155    2.4160 Q=   -0.8200 A=    0.0000 R=    0.0000 C=    0.0000
 XYZ=   -1.8606   -6.3532    3.0505 Q=    0.4100 A=    0.0000 R=    0.0000 C=    0.0000
 XYZ=   -2.2018   -7.1668    1.6763 Q=    0.4100 A=    0.0000 R=    0.0000 C=    0.0000
 XYZ=   -7.2840   -3.0988    3.5576 Q=   -0.8200 A=    0.0000 R=    0.0000 C=    0.0000
 XYZ=   -7.0976   -2.5803    2.7231 Q=    0.4100 A=    0.0000 R=    0.0000 C=    0.0000
 XYZ=   -8.1300   -3.6198    3.4443 Q=    0.4100 A=    0.0000 R=    0.0000 C=    0.0000
 XYZ=    6.1903   -2.5524    2.5647 Q=   -0.8200 A=    0.0000 R=    0.0000 C=    0.0000
 XYZ=    6.3075   -1.6171    2.8987 Q=    0.4100 A=    0.0000 R=    0.0000 C=    0.0000
 XYZ=    6.6029   -2.6366    1.6577 Q=    0.4100 A=    0.0000 R=    0.0000 C=    0.0000
 XYZ=    7.2606    2.3376    1.1193 Q=   -0.8200 A=    0.0000 R=    0.0000 C=    0.0000
 XYZ=    6.4781    2.9099    1.3646 Q=    0.4100 A=    0.0000 R=    0.0000 C=    0.0000
 XYZ=    6.9980    1.7108    0.3857 Q=    0.4100 A=    0.0000 R=    0.0000 C=    0.0000
 XYZ=   -6.1010    1.9899   -3.9814 Q=   -0.8200 A=    0.0000 R=    0.0000 C=    0.0000
 XYZ=   -5.4596    2.1031   -4.7402 Q=    0.4100 A=    0.0000 R=    0.0000 C=    0.0000
 XYZ=   -7.0146    1.8024   -4.3425 Q=    0.4100 A=    0.0000 R=    0.0000 C=    0.0000
 XYZ=    6.2646   -0.4978    3.7719 Q=   -0.8200 A=    0.0000 R=    0.0000 C=    0.0000
 XYZ=    6.5552   -1.1242    4.4952 Q=    0.4100 A=    0.0000 R=    0.0000 C=    0.0000
 XYZ=    5.7041    0.2302    4.1669 Q=    0.4100 A=    0.0000 R=    0.0000 C=    0.0000
 XYZ=   -4.6893    2.5175   -5.9483 Q=   -0.8200 A=    0.0000 R=    0.0000 C=    0.0000
 XYZ=   -4.8657    2.6683   -6.9210 Q=    0.4100 A=    0.0000 R=    0.0000 C=    0.0000
 XYZ=   -4.1658    1.6736   -5.8315 Q=    0.4100 A=    0.0000 R=    0.0000 C=    0.0000
 XYZ=   -5.4645   -4.3091    4.0578 Q=   -0.8200 A=    0.0000 R=    0.0000 C=    0.0000
 XYZ=   -6.2175   -3.7454    3.7184 Q=    0.4100 A=    0.0000 R=    0.0000 C=    0.0000
 XYZ=   -4.8064   -3.7309    4.5401 Q=    0.4100 A=    0.0000 R=    0.0000 C=    0.0000
 XYZ=    8.0421   -0.5422    0.2914 Q=   -0.8200 A=    0.0000 R=    0.0000 C=    0.0000
 XYZ=    7.2648   -0.0628   -0.1161 Q=    0.4100 A=    0.0000 R=    0.0000 C=    0.0000
 XYZ=    7.8398   -1.5201    0.3448 Q=    0.4100 A=    0.0000 R=    0.0000 C=    0.0000
 XYZ=   -6.0947   -1.4426    4.8483 Q=   -0.8200 A=    0.0000 R=    0.0000 C=    0.0000
 XYZ=   -6.6915   -2.1494    4.4683 Q=    0.4100 A=    0.0000 R=    0.0000 C=    0.0000
 XYZ=   -5.3564   -1.8733    5.3673 Q=    0.4100 A=    0.0000 R=    0.0000 C=    0.0000
 XYZ=   -9.0123   -1.5871    0.4341 Q=   -0.8200 A=    0.0000 R=    0.0000 C=    0.0000
 XYZ=   -8.6288   -1.2732   -0.4345 Q=    0.4100 A=    0.0000 R=    0.0000 C=    0.0000
 XYZ=   -8.3101   -2.0769    0.9509 Q=    0.4100 A=    0.0000 R=    0.0000 C=    0.0000
 XYZ=   -1.8867   -7.6260    0.4590 Q=   -0.8200 A=    0.0000 R=    0.0000 C=    0.0000
 XYZ=   -1.8237   -8.5796    0.1646 Q=    0.4100 A=    0.0000 R=    0.0000 C=    0.0000
 XYZ=   -2.4966   -7.1268   -0.1565 Q=    0.4100 A=    0.0000 R=    0.0000 C=    0.0000
 XYZ=   -6.4583    4.1807   -2.9744 Q=   -0.8200 A=    0.0000 R=    0.0000 C=    0.0000
 XYZ=   -5.9135    4.8721   -3.4490 Q=    0.4100 A=    0.0000 R=    0.0000 C=    0.0000
 XYZ=   -6.2921    3.2848   -3.3865 Q=    0.4100 A=    0.0000 R=    0.0000 C=    0.0000
 XYZ=    4.5507   -3.9798    5.5520 Q=   -0.8200 A=    0.0000 R=    0.0000 C=    0.0000
 XYZ=    4.1288   -3.7316    4.6799 Q=    0.4100 A=    0.0000 R=    0.0000 C=    0.0000
 XYZ=    4.7480   -3.1504    6.0748 Q=    0.4100 A=    0.0000 R=    0.0000 C=    0.0000
 XYZ=   -3.5486    5.3528    4.3011 Q=   -0.8200 A=    0.0000 R=    0.0000 C=    0.0000
 XYZ=   -4.3630    5.8561    4.5898 Q=    0.4100 A=    0.0000 R=    0.0000 C=    0.0000
 XYZ=   -3.8182    4.5954    3.7064 Q=    0.4100 A=    0.0000 R=    0.0000 C=    0.0000
 XYZ=   -4.2254    6.7271   -1.2662 Q=   -0.8200 A=    0.0000 R=    0.0000 C=    0.0000
 XYZ=   -3.4739    7.1309   -1.7880 Q=    0.4100 A=    0.0000 R=    0.0000 C=    0.0000
 XYZ=   -4.8141    7.4540   -0.9126 Q=    0.4100 A=    0.0000 R=    0.0000 C=    0.0000
 XYZ=    0.2283   -7.3988    1.3033 Q=   -0.8200 A=    0.0000 R=    0.0000 C=    0.0000
 XYZ=    0.9062   -7.6148    0.6005 Q=    0.4100 A=    0.0000 R=    0.0000 C=    0.0000
 XYZ=   -0.6901   -7.4747    0.9150 Q=    0.4100 A=    0.0000 R=    0.0000 C=    0.0000
 XYZ=    5.1722    1.1073    5.0251 Q=   -0.8200 A=    0.0000 R=    0.0000 C=    0.0000
 XYZ=    5.8242    1.1674    5.7809 Q=    0.4100 A=    0.0000 R=    0.0000 C=    0.0000
 XYZ=    4.9872    2.0240    4.6708 Q=    0.4100 A=    0.0000 R=    0.0000 C=    0.0000
 XYZ=    5.0169    3.4260    4.2286 Q=   -0.8200 A=    0.0000 R=    0.0000 C=    0.0000
 XYZ=    5.7159    3.8400    4.8118 Q=    0.4100 A=    0.0000 R=    0.0000 C=    0.0000
 XYZ=    4.1879    3.9848    4.2541 Q=    0.4100 A=    0.0000 R=    0.0000 C=    0.0000
 XYZ=    5.9268    6.0600   -1.2170 Q=   -0.8200 A=    0.0000 R=    0.0000 C=    0.0000
 XYZ=    5.1206    6.2767   -0.6666 Q=    0.4100 A=    0.0000 R=    0.0000 C=    0.0000
 XYZ=    6.7475    6.1376   -0.6509 Q=    0.4100 A=    0.0000 R=    0.0000 C=    0.0000
 XYZ=   -6.1176    4.8553    1.9557 Q=   -0.8200 A=    0.0000 R=    0.0000 C=    0.0000
 XYZ=   -6.7051    4.7032    2.7506 Q=    0.4100 A=    0.0000 R=    0.0000 C=    0.0000
 XYZ=   -6.5138    4.4023    1.1570 Q=    0.4100 A=    0.0000 R=    0.0000 C=    0.0000
 XYZ=    2.2219    1.2535    6.8582 Q=   -0.8200 A=    0.0000 R=    0.0000 C=    0.0000
 XYZ=    2.6464    0.4904    6.3708 Q=    0.4100 A=    0.0000 R=    0.0000 C=    0.0000
 XYZ=    1.3848    0.9387    7.3057 Q=    0.4100 A=    0.0000 R=    0.0000 C=    0.0000
 XYZ=    7.1996    1.4556   -2.8451 Q=   -0.8200 A=    0.0000 R=    0.0000 C=    0.0000
 XYZ=    7.0382    2.2881   -3.3751 Q=    0.4100 A=    0.0000 R=    0.0000 C=    0.0000
 XYZ=    7.0763    0.6566   -3.4336 Q=    0.4100 A=    0.0000 R=    0.0000 C=    0.0000
 XYZ=    5.8552   -5.7082   -0.5311 Q=   -0.8200 A=    0.0000 R=    0.0000 C=    0.0000
 XYZ=    4.9347   -5.6912   -0.1405 Q=    0.4100 A=    0.0000 R=    0.0000 C=    0.0000
 XYZ=    5.8637   -6.2981   -1.3386 Q=    0.4100 A=    0.0000 R=    0.0000 C=    0.0000
 XYZ=   -8.2200    3.1153   -1.4928 Q=   -0.8200 A=    0.0000 R=    0.0000 C=    0.0000
 XYZ=   -7.6577    3.6425   -2.1299 Q=    0.4100 A=    0.0000 R=    0.0000 C=    0.0000
 XYZ=   -7.8480    3.2032   -0.5687 Q=    0.4100 A=    0.0000 R=    0.0000 C=    0.0000
 XYZ=   -3.4505   -6.9713   -1.2316 Q=   -0.8200 A=    0.0000 R=    0.0000 C=    0.0000
 XYZ=   -3.7888   -6.6135   -2.1020 Q=    0.4100 A=    0.0000 R=    0.0000 C=    0.0000
 XYZ=   -3.6901   -7.9390   -1.1534 Q=    0.4100 A=    0.0000 R=    0.0000 C=    0.0000
 XYZ=    1.4976    8.3317   -2.2446 Q=   -0.8200 A=    0.0000 R=    0.0000 C=    0.0000
 XYZ=    1.4714    8.8041   -3.1256 Q=    0.4100 A=    0.0000 R=    0.0000 C=    0.0000
 XYZ=    2.1514    7.5765   -2.2907 Q=    0.4100 A=    0.0000 R=    0.0000 C=    0.0000
 XYZ=    4.4049    4.7840   -6.3739 Q=   -0.8200 A=    0.0000 R=    0.0000 C=    0.0000
 XYZ=    5.4019    4.7966   -6.4508 Q=    0.4100 A=    0.0000 R=    0.0000 C=    0.0000
 XYZ=    4.1438    4.8712   -5.4125 Q=    0.4100 A=    0.0000 R=    0.0000 C=    0.0000
 XYZ=    6.3382   -4.4077    4.0365 Q=   -0.8200 A=    0.0000 R=    0.0000 C=    0.0000
 XYZ=    6.2824   -3.6095    3.4367 Q=    0.4100 A=    0.0000 R=    0.0000 C=    0.0000
 XYZ=    5.5728   -4.3951    4.6801 Q=    0.4100 A=    0.0000 R=    0.0000 C=    0.0000
 XYZ=   -2.5879    8.1143   -2.5346 Q=   -0.8200 A=    0.0000 R=    0.0000 C=    0.0000
 XYZ=   -3.1274    8.8602   -2.1440 Q=    0.4100 A=    0.0000 R=    0.0000 C=    0.0000
 XYZ=   -1.7877    7.9449   -1.9592 Q=    0.4100 A=    0.0000 R=    0.0000 C=    0.0000
 XYZ=   -0.1306   -2.8180    7.6927 Q=   -0.8200 A=    0.0000 R=    0.0000 C=    0.0000
 XYZ=    0.3908   -3.0683    6.8769 Q=    0.4100 A=    0.0000 R=    0.0000 C=    0.0000
 XYZ=    0.1969   -3.3500    8.4736 Q=    0.4100 A=    0.0000 R=    0.0000 C=    0.0000
 XYZ=   -6.5914   -6.7722    0.8636 Q=   -0.8200 A=    0.0000 R=    0.0000 C=    0.0000
 XYZ=   -7.4505   -6.6399    0.3693 Q=    0.4100 A=    0.0000 R=    0.0000 C=    0.0000
 XYZ=   -5.8908   -6.1696    0.4814 Q=    0.4100 A=    0.0000 R=    0.0000 C=    0.0000
 XYZ=    6.6843    3.5931   -3.9603 Q=   -0.8200 A=    0.0000 R=    0.0000 C=    0.0000
 XYZ=    7.4751    3.9937   -3.4975 Q=    0.4100 A=    0.0000 R=    0.0000 C=    0.0000
 XYZ=    6.6743    3.8855   -4.9165 Q=    0.4100 A=    0.0000 R=    0.0000 C=    0.0000
 XYZ=    7.6665   -2.7762    0.4898 Q=   -0.8200 A=    0.0000 R=    0.0000 C=    0.0000
 XYZ=    7.6462   -3.1273   -0.4463 Q=    0.4100 A=    0.0000 R=    0.0000 C=    0.0000
 XYZ=    8.0928   -3.4528    1.0903 Q=    0.4100 A=    0.0000 R=    0.0000 C=    0.0000
 XYZ=   -9.0719    2.2830    1.7864 Q=   -0.8200 A=    0.0000 R=    0.0000 C=    0.0000
 XYZ=   -9.9996    2.2792    1.4129 Q=    0.4100 A=    0.0000 R=    0.0000 C=    0.0000
 XYZ=   -8.8206    1.3557    2.0639 Q=    0.4100 A=    0.0000 R=    0.0000 C=    0.0000
 XYZ=    3.6713   -7.6559   -0.7304 Q=   -0.8200 A=    0.0000 R=    0.0000 C=    0.0000
 XYZ=    3.7069   -6.8150   -0.1904 Q=    0.4100 A=    0.0000 R=    0.0000 C=    0.0000
 XYZ=    4.3815   -7.6304   -1.4341 Q=    0.4100 A=    0.0000 R=    0.0000 C=    0.0000
 XYZ=   -6.8412    4.2848    4.0895 Q=   -0.8200 A=    0.0000 R=    0.0000 C=    0.0000
 XYZ=   -6.2413    3.5284    4.3503 Q=    0.4100 A=    0.0000 R=    0.0000 C=    0.0000
 XYZ=   -6.4892    5.1376    4.4754 Q=    0.4100 A=    0.0000 R=    0.0000 C=    0.0000
 XYZ=   -9.0421    1.2093   -2.6358 Q=   -0.8200 A=    0.0000 R=    0.0000 C=    0.0000
 XYZ=  -10.0321    1.3153   -2.7298 Q=    0.4100 A=    0.0000 R=    0.0000 C=    0.0000
 XYZ=   -8.6778    1.9582   -2.0821 Q=    0.4100 A=    0.0000 R=    0.0000 C=    0.0000
 XYZ=    8.0760    0.9721    2.9936 Q=   -0.8200 A=    0.0000 R=    0.0000 C=    0.0000
 XYZ=    7.6076    1.4986    2.2841 Q=    0.4100 A=    0.0000 R=    0.0000 C=    0.0000
 XYZ=    7.4608    0.2669    3.3462 Q=    0.4100 A=    0.0000 R=    0.0000 C=    0.0000
 XYZ=    7.5313   -3.9372   -1.5399 Q=   -0.8200 A=    0.0000 R=    0.0000 C=    0.0000
 XYZ=    6.7575   -4.4474   -1.1644 Q=    0.4100 A=    0.0000 R=    0.0000 C=    0.0000
 XYZ=    8.3519   -4.5080   -1.5120 Q=    0.4100 A=    0.0000 R=    0.0000 C=    0.0000
 XYZ=    7.5923    5.4336    1.8550 Q=   -0.8200 A=    0.0000 R=    0.0000 C=    0.0000
 XYZ=    6.7962    4.8305    1.8034 Q=    0.4100 A=    0.0000 R=    0.0000 C=    0.0000
 XYZ=    8.4154    4.9205    1.6115 Q=    0.4100 A=    0.0000 R=    0.0000 C=    0.0000
 XYZ=   -2.1391   -3.7358    7.0644 Q=   -0.8200 A=    0.0000 R=    0.0000 C=    0.0000
 XYZ=   -1.3845   -3.3117    7.5653 Q=    0.4100 A=    0.0000 R=    0.0000 C=    0.0000
 XYZ=   -2.3019   -4.6551    7.4227 Q=    0.4100 A=    0.0000 R=    0.0000 C=    0.0000
 XYZ=   -3.7783    0.5974   -8.1415 Q=   -0.8200 A=    0.0000 R=    0.0000 C=    0.0000
 XYZ=   -4.3247   -0.0798   -8.6343 Q=    0.4100 A=    0.0000 R=    0.0000 C=    0.0000
 XYZ=   -3.5862    0.2632   -7.2188 Q=    0.4100 A=    0.0000 R=    0.0000 C=    0.0000
 XYZ=    1.7811    3.5022    6.2556 Q=   -0.8200 A=    0.0000 R=    0.0000 C=    0.0000
 XYZ=    2.0062    4.1588    6.9756 Q=    0.4100 A=    0.0000 R=    0.0000 C=    0.0000
 XYZ=    2.0908    2.5908    6.5270 Q=    0.4100 A=    0.0000 R=    0.0000 C=    0.0000
 XYZ=   -1.3661    8.0088    1.6535 Q=   -0.8200 A=    0.0000 R=    0.0000 C=    0.0000
 XYZ=   -1.8671    7.6850    2.4562 Q=    0.4100 A=    0.0000 R=    0.0000 C=    0.0000
 XYZ=   -1.8694    8.7606    1.2274 Q=    0.4100 A=    0.0000 R=    0.0000 C=    0.0000
 XYZ=   -2.2560    7.2077    3.5349 Q=   -0.8200 A=    0.0000 R=    0.0000 C=    0.0000
 XYZ=   -2.7937    6.4294    3.8594 Q=    0.4100 A=    0.0000 R=    0.0000 C=    0.0000
 XYZ=   -2.7979    8.0442    3.6162 Q=    0.4100 A=    0.0000 R=    0.0000 C=    0.0000
 XYZ=    2.6267   -5.2142    6.2349 Q=   -0.8200 A=    0.0000 R=    0.0000 C=    0.0000
 XYZ=    3.4423   -4.7901    5.8414 Q=    0.4100 A=    0.0000 R=    0.0000 C=    0.0000
 XYZ=    1.8423   -4.6063    6.1114 Q=    0.4100 A=    0.0000 R=    0.0000 C=    0.0000
 XYZ=   -0.8641    3.5034   -8.5776 Q=   -0.8200 A=    0.0000 R=    0.0000 C=    0.0000
 XYZ=   -0.9619    3.4573   -7.5835 Q=    0.4100 A=    0.0000 R=    0.0000 C=    0.0000
 XYZ=   -1.4962    4.1866   -8.9433 Q=    0.4100 A=    0.0000 R=    0.0000 C=    0.0000
 XYZ=    1.5399    7.1026    4.3108 Q=   -0.8200 A=    0.0000 R=    0.0000 C=    0.0000
 XYZ=    2.1392    6.3050    4.3805 Q=    0.4100 A=    0.0000 R=    0.0000 C=    0.0000
 XYZ=    0.6737    6.9099    4.7720 Q=    0.4100 A=    0.0000 R=    0.0000 C=    0.0000
 XYZ=   -7.4310    0.3877    6.2705 Q=   -0.8200 A=    0.0000 R=    0.0000 C=    0.0000
 XYZ=   -7.1650   -0.2549    5.5519 Q=    0.4100 A=    0.0000 R=    0.0000 C=    0.0000
 XYZ=   -6.7654    1.1327    6.3144 Q=    0.4100 A=    0.0000 R=    0.0000 C=    0.0000
 XYZ=   -4.1870   -8.0328    3.7594 Q=   -0.8200 A=    0.0000 R=    0.0000 C=    0.0000
 XYZ=   -3.5606   -7.4787    3.2111 Q=    0.4100 A=    0.0000 R=    0.0000 C=    0.0000
 XYZ=   -4.9739   -7.4779    4.0291 Q=    0.4100 A=    0.0000 R=    0.0000 C=    0.0000
 XYZ=   -2.3800    4.4086    6.4476 Q=   -0.8200 A=    0.0000 R=    0.0000 C=    0.0000
 XYZ=   -2.4565    4.5946    5.4680 Q=    0.4100 A=    0.0000 R=    0.0000 C=    0.0000
 XYZ=   -1.5545    3.8716    6.6214 Q=    0.4100 A=    0.0000 R=    0.0000 C=    0.0000
 XYZ=    4.9294   -6.1144    2.9906 Q=   -0.8200 A=    0.0000 R=    0.0000 C=    0.0000
 XYZ=    4.2034   -6.4035    3.6145 Q=    0.4100 A=    0.0000 R=    0.0000 C=    0.0000
 XYZ=    5.6099   -5.5826    3.4947 Q=    0.4100 A=    0.0000 R=    0.0000 C=    0.0000
 XYZ=    5.6541   -1.5614   -5.8396 Q=   -0.8200 A=    0.0000 R=    0.0000 C=    0.0000
 XYZ=    5.2156   -0.9284   -6.4777 Q=    0.4100 A=    0.0000 R=    0.0000 C=    0.0000
 XYZ=    6.2964   -1.0593   -5.2605 Q=    0.4100 A=    0.0000 R=    0.0000 C=    0.0000
 XYZ=    9.1434    0.5729   -1.5381 Q=   -0.8200 A=    0.0000 R=    0.0000 C=    0.0000
 XYZ=    8.3781    0.9383   -2.0680 Q=    0.4100 A=    0.0000 R=    0.0000 C=    0.0000
 XYZ=    8.8019    0.1908   -0.6795 Q=    0.4100 A=    0.0000 R=    0.0000 C=    0.0000
 XYZ=   -4.6083   -6.4938   -3.3942 Q=   -0.8200 A=    0.0000 R=    0.0000 C=    0.0000
 XYZ=   -4.5172   -5.9473   -4.2267 Q=    0.4100 A=    0.0000 R=    0.0000 C=    0.0000
 XYZ=   -5.5492   -6.8226   -3.3127 Q=    0.4100 A=    0.0000 R=    0.0000 C=    0.0000
 XYZ=   -0.4231    3.2012    7.0225 Q=   -0.8200 A=    0.0000 R=    0.0000 C=    0.0000
 XYZ=    0.4118    3.3579    6.4948 Q=    0.4100 A=    0.0000 R=    0.0000 C=    0.0000
 XYZ=   -0.4406    2.2549    7.3454 Q=    0.4100 A=    0.0000 R=    0.0000 C=    0.0000
 XYZ=   -1.2087   -0.8366    8.1540 Q=   -0.8200 A=    0.0000 R=    0.0000 C=    0.0000
 XYZ=   -0.6062   -1.6004    7.9226 Q=    0.4100 A=    0.0000 R=    0.0000 C=    0.0000
 XYZ=   -2.1506   -1.1647    8.2251 Q=    0.4100 A=    0.0000 R=    0.0000 C=    0.0000
 XYZ=   -8.4538    1.6690   -4.8030 Q=   -0.8200 A=    0.0000 R=    0.0000 C=    0.0000
 XYZ=   -8.6443    1.4042   -3.8577 Q=    0.4100 A=    0.0000 R=    0.0000 C=    0.0000
 XYZ=   -9.2243    1.4070   -5.3842 Q=    0.4100 A=    0.0000 R=    0.0000 C=    0.0000
 XYZ=    7.3893   -0.7328   -4.4034 Q=   -0.8200 A=    0.0000 R=    0.0000 C=    0.0000
 XYZ=    7.9187   -0.5285   -5.2269 Q=    0.4100 A=    0.0000 R=    0.0000 C=    0.0000
 XYZ=    7.7530   -1.5571   -3.9695 Q=    0.4100 A=    0.0000 R=    0.0000 C=    0.0000
 XYZ=    3.0519    3.1710   -7.6057 Q=   -0.8200 A=    0.0000 R=    0.0000 C=    0.0000
 XYZ=    3.6547    3.8843   -7.2480 Q=    0.4100 A=    0.0000 R=    0.0000 C=    0.0000
 XYZ=    3.6031    2.4194   -7.9679 Q=    0.4100 A=    0.0000 R=    0.0000 C=    0.0000
 XYZ=   -2.5858    8.1942   -4.9294 Q=   -0.8200 A=    0.0000 R=    0.0000 C=    0.0000
 XYZ=   -2.5567    8.1518   -3.9307 Q=    0.4100 A=    0.0000 R=    0.0000 C=    0.0000
 XYZ=   -2.4811    7.2734   -5.3052 Q=    0.4100 A=    0.0000 R=    0.0000 C=    0.0000
 XYZ=    0.1976    1.0780    7.9822 Q=   -0.8200 A=    0.0000 R=    0.0000 C=    0.0000
 XYZ=   -0.4041    0.2799    7.9513 Q=    0.4100 A=    0.0000 R=    0.0000 C=    0.0000
 XYZ=    0.3623    1.3346    8.9346 Q=    0.4100 A=    0.0000 R=    0.0000 C=    0.0000
 XYZ=    9.1088    3.6606    1.5995 Q=   -0.8200 A=    0.0000 R=    0.0000 C=    0.0000
 XYZ=    9.4975    3.3811    2.4775 Q=    0.4100 A=    0.0000 R=    0.0000 C=    0.0000
 XYZ=    8.3665    3.0386    1.3505 Q=    0.4100 A=    0.0000 R=    0.0000 C=    0.0000
 XYZ=    2.8748   -6.7809    4.2279 Q=   -0.8200 A=    0.0000 R=    0.0000 C=    0.0000
 XYZ=    2.3986   -7.6564    4.3109 Q=    0.4100 A=    0.0000 R=    0.0000 C=    0.0000
 XYZ=    2.7369   -6.2462    5.0616 Q=    0.4100 A=    0.0000 R=    0.0000 C=    0.0000
 XYZ=   -6.0307   -6.6456    4.5994 Q=   -0.8200 A=    0.0000 R=    0.0000 C=    0.0000
 XYZ=   -6.7908   -6.7127    3.9531 Q=    0.4100 A=    0.0000 R=    0.0000 C=    0.0000
 XYZ=   -5.7521   -5.6893    4.6881 Q=    0.4100 A=    0.0000 R=    0.0000 C=    0.0000
 XYZ=   -0.4723    6.7086    5.1961 Q=   -0.8200 A=    0.0000 R=    0.0000 C=    0.0000
 XYZ=   -1.0863    6.9145    4.4341 Q=    0.4100 A=    0.0000 R=    0.0000 C=    0.0000
 XYZ=   -0.9829    6.7468    6.0551 Q=    0.4100 A=    0.0000 R=    0.0000 C=    0.0000
 XYZ=    0.8196   -9.5283    2.1619 Q=   -0.8200 A=    0.0000 R=    0.0000 C=    0.0000
 XYZ=    1.3633  -10.0424    1.4986 Q=    0.4100 A=    0.0000 R=    0.0000 C=    0.0000
 XYZ=    0.5842   -8.6350    1.7790 Q=    0.4100 A=    0.0000 R=    0.0000 C=    0.0000
 XYZ=    5.2504   -1.9866    6.6974 Q=   -0.8200 A=    0.0000 R=    0.0000 C=    0.0000
 XYZ=    5.5073   -1.7350    7.6305 Q=    0.4100 A=    0.0000 R=    0.0000 C=    0.0000
 XYZ=    6.0751   -2.0937    6.1421 Q=    0.4100 A=    0.0000 R=    0.0000 C=    0.0000
 XYZ=    6.5365   -3.4689   -4.7378 Q=   -0.8200 A=    0.0000 R=    0.0000 C=    0.0000
 XYZ=    7.0968   -3.1386   -3.9782 Q=    0.4100 A=    0.0000 R=    0.0000 C=    0.0000
 XYZ=    6.1301   -2.6900   -5.2155 Q=    0.4100 A=    0.0000 R=    0.0000 C=    0.0000
 XYZ=    0.8306    8.4654    2.5225 Q=   -0.8200 A=    0.0000 R=    0.0000 C=    0.0000
 XYZ=   -0.1551    8.4260    2.3586 Q=    0.4100 A=    0.0000 R=    0.0000 C=    0.0000
 XYZ=    1.0637    7.8751    3.2954 Q=    0.4100 A=    0.0000 R=    0.0000 C=    0.0000
 XYZ=    8.2276   -2.5502   -3.2684 Q=   -0.8200 A=    0.0000 R=    0.0000 C=    0.0000
 XYZ=    9.0963   -2.1128   -3.0358 Q=    0.4100 A=    0.0000 R=    0.0000 C=    0.0000
 XYZ=    7.9554   -3.1652   -2.5284 Q=    0.4100 A=    0.0000 R=    0.0000 C=    0.0000
 XYZ=  -10.6657   -1.2111   -3.0203 Q=   -0.8200 A=    0.0000 R=    0.0000 C=    0.0000
 XYZ=  -11.0912   -0.3103   -2.9328 Q=    0.4100 A=    0.0000 R=    0.0000 C=    0.0000
 XYZ=   -9.8390   -1.2451   -2.4588 Q=    0.4100 A=    0.0000 R=    0.0000 C=    0.0000
 XYZ=   -1.4166    1.3097   -8.8935 Q=   -0.8200 A=    0.0000 R=    0.0000 C=    0.0000
 XYZ=   -2.2903    1.1140   -8.4481 Q=    0.4100 A=    0.0000 R=    0.0000 C=    0.0000
 XYZ=   -1.2136    2.2858   -8.8147 Q=    0.4100 A=    0.0000 R=    0.0000 C=    0.0000
 XYZ=    1.6532   -8.5396   -0.0144 Q=   -0.8200 A=    0.0000 R=    0.0000 C=    0.0000
 XYZ=    2.5842   -8.2916   -0.2824 Q=    0.4100 A=    0.0000 R=    0.0000 C=    0.0000
 XYZ=    1.0846   -8.6322   -0.8318 Q=    0.4100 A=    0.0000 R=    0.0000 C=    0.0000
 XYZ=   -5.5233    1.9446    6.9318 Q=   -0.8200 A=    0.0000 R=    0.0000 C=    0.0000
 XYZ=   -5.5822    1.3791    7.7545 Q=    0.4100 A=    0.0000 R=    0.0000 C=    0.0000
 XYZ=   -5.0641    2.8054    7.1513 Q=    0.4100 A=    0.0000 R=    0.0000 C=    0.0000
 XYZ=    7.0923   -6.6864    1.3900 Q=   -0.8200 A=    0.0000 R=    0.0000 C=    0.0000
 XYZ=    6.6033   -6.2976    0.6091 Q=    0.4100 A=    0.0000 R=    0.0000 C=    0.0000
 XYZ=    6.5050   -7.3490    1.8547 Q=    0.4100 A=    0.0000 R=    0.0000 C=    0.0000
 XYZ=   -9.0635    3.6648    3.7709 Q=   -0.8200 A=    0.0000 R=    0.0000 C=    0.0000
 XYZ=   -9.0360    3.1226    2.9311 Q=    0.4100 A=    0.0000 R=    0.0000 C=    0.0000
 XYZ=   -8.1346    3.9353    4.0235 Q=    0.4100 A=    0.0000 R=    0.0000 C=    0.0000
 XYZ=  -11.1887   -2.4461    0.6973 Q=   -0.8200 A=    0.0000 R=    0.0000 C=    0.0000
 XYZ=  -10.2782   -2.0702    0.5249 Q=    0.4100 A=    0.0000 R=    0.0000 C=    0.0000
 XYZ=  -11.1027   -3.3333    1.1505 Q=    0.4100 A=    0.0000 R=    0.0000 C=    0.0000
 XYZ=   -5.7658    7.9999    1.9580 Q=   -0.8200 A=    0.0000 R=    0.0000 C=    0.0000
 XYZ=   -6.1368    7.0881    1.7817 Q=    0.4100 A=    0.0000 R=    0.0000 C=    0.0000
 XYZ=   -5.6255    8.1183    2.9410 Q=    0.4100 A=    0.0000 R=    0.0000 C=    0.0000
 XYZ=    3.3293    2.0951    8.7065 Q=   -0.8200 A=    0.0000 R=    0.0000 C=    0.0000
 XYZ=    4.2443    2.3775    8.4182 Q=    0.4100 A=    0.0000 R=    0.0000 C=    0.0000
 XYZ=    2.8665    1.6385    7.9466 Q=    0.4100 A=    0.0000 R=    0.0000 C=    0.0000
 XYZ=    6.4346   -5.8503   -4.0789 Q=   -0.8200 A=    0.0000 R=    0.0000 C=    0.0000
 XYZ=    6.4170   -4.8570   -4.1930 Q=    0.4100 A=    0.0000 R=    0.0000 C=    0.0000
 XYZ=    6.0602   -6.2865   -4.8971 Q=    0.4100 A=    0.0000 R=    0.0000 C=    0.0000
 XYZ=    8.1317   -4.5806    1.9696 Q=   -0.8200 A=    0.0000 R=    0.0000 C=    0.0000
 XYZ=    8.0032   -4.3408    2.9319 Q=    0.4100 A=    0.0000 R=    0.0000 C=    0.0000
 XYZ=    7.6206   -5.4148    1.7628 Q=    0.4100 A=    0.0000 R=    0.0000 C=    0.0000
 XYZ=   -8.6393   -6.1667   -0.4556 Q=   -0.8200 A=    0.0000 R=    0.0000 C=    0.0000
 XYZ=   -8.7053   -5.5343   -1.2274 Q=    0.4100 A=    0.0000 R=    0.0000 C=    0.0000
 XYZ=   -9.5570   -6.3831   -0.1225 Q=    0.4100 A=    0.0000 R=    0.0000 C=    0.0000
 XYZ=    7.4006   -1.7752    5.5695 Q=   -0.8200 A=    0.0000 R=    0.0000 C=    0.0000
 XYZ=    7.8807   -1.3180    6.3182 Q=    0.4100 A=    0.0000 R=    0.0000 C=    0.0000
 XYZ=    7.7776   -2.6928    5.4429 Q=    0.4100 A=    0.0000 R=    0.0000 C=    0.0000
 XYZ=   10.4118   -0.5251    1.0634 Q=   -0.8200 A=    0.0000 R=    0.0000 C=    0.0000
 XYZ=   10.4638   -0.2786    2.0312 Q=    0.4100 A=    0.0000 R=    0.0000 C=    0.0000
 XYZ=    9.4618   -0.4696    0.7559 Q=    0.4100 A=    0.0000 R=    0.0000 C=    0.0000
 XYZ=    1.4376   -8.5585    4.2511 Q=   -0.8200 A=    0.0000 R=    0.0000 C=    0.0000
 XYZ=    0.5273   -8.2660    4.5443 Q=    0.4100 A=    0.0000 R=    0.0000 C=    0.0000
 XYZ=    1.3742   -8.9956    3.3539 Q=    0.4100 A=    0.0000 R=    0.0000 C=    0.0000
 XYZ=   -0.9617   -7.9573    5.3496 Q=   -0.8200 A=    0.0000 R=    0.0000 C=    0.0000
 XYZ=   -0.5764   -7.7664    6.2524 Q=    0.4100 A=    0.0000 R=    0.0000 C=    0.0000
 XYZ=   -1.5712   -8.7480    5.4078 Q=    0.4100 A=    0.0000 R=    0.0000 C=    0.0000
 XYZ=  -11.2106    0.1704    3.0679 Q=   -0.8200 A=    0.0000 R=    0.0000 C=    0.0000
 XYZ=  -11.1228    1.0791    3.4762 Q=    0.4100 A=    0.0000 R=    0.0000 C=    0.0000
 XYZ=  -10.3101   -0.1525    2.7766 Q=    0.4100 A=    0.0000 R=    0.0000 C=    0.0000
 XYZ=   -7.7119   -6.8862    3.0389 Q=   -0.8200 A=    0.0000 R=    0.0000 C=    0.0000
 XYZ=   -7.2074   -6.8234    2.1778 Q=    0.4100 A=    0.0000 R=    0.0000 C=    0.0000
 XYZ=   -8.3071   -7.6896    3.0186 Q=    0.4100 A=    0.0000 R=    0.0000 C=    0.0000
 XYZ=    1.8979   10.1852   -0.8072 Q=   -0.8200 A=    0.0000 R=    0.0000 C=    0.0000
 XYZ=    2.8005   10.6119   -0.8644 Q=    0.4100 A=    0.0000 R=    0.0000 C=    0.0000
 XYZ=    1.8301    9.4564   -1.4885 Q=    0.4100 A=    0.0000 R=    0.0000 C=    0.0000
 XYZ=   -4.4389    3.8837    7.4371 Q=   -0.8200 A=    0.0000 R=    0.0000 C=    0.0000
 XYZ=   -4.9357    4.7515    7.4227 Q=    0.4100 A=    0.0000 R=    0.0000 C=    0.0000
 XYZ=   -3.5486    4.0020    6.9973 Q=    0.4100 A=    0.0000 R=    0.0000 C=    0.0000
 XYZ=    8.1266    6.7933   -0.0625 Q=   -0.8200 A=    0.0000 R=    0.0000 C=    0.0000
 XYZ=    8.4893    7.6547    0.2932 Q=    0.4100 A=    0.0000 R=    0.0000 C=    0.0000
 XYZ=    7.7912    6.2345    0.6960 Q=    0.4100 A=    0.0000 R=    0.0000 C=    0.0000
 XYZ=   -4.9884    2.6427   -8.3943 Q=   -0.8200 A=    0.0000 R=    0.0000 C=    0.0000
 XYZ=   -4.6845    3.1625   -9.1927 Q=    0.4100 A=    0.0000 R=    0.0000 C=    0.0000
 XYZ=   -4.4832    1.7810   -8.3457 Q=    0.4100 A=    0.0000 R=    0.0000 C=    0.0000
 XYZ=   -5.4896    8.5155   -0.3608 Q=   -0.8200 A=    0.0000 R=    0.0000 C=    0.0000
 XYZ=   -6.2222    9.0995   -0.7105 Q=    0.4100 A=    0.0000 R=    0.0000 C=    0.0000
 XYZ=   -5.7403    8.1722    0.5443 Q=    0.4100 A=    0.0000 R=    0.0000 C=    0.0000
 XYZ=    4.5602   -0.8140   -8.0293 Q=   -0.8200 A=    0.0000 R=    0.0000 C=    0.0000
 XYZ=    4.6110    0.0524   -8.5260 Q=    0.4100 A=    0.0000 R=    0.0000 C=    0.0000
 XYZ=    3.6593   -1.2252   -8.1676 Q=    0.4100 A=    0.0000 R=    0.0000 C=    0.0000
 XYZ=    8.3161    6.7092   -2.4190 Q=   -0.8200 A=    0.0000 R=    0.0000 C=    0.0000
 XYZ=    7.3568    6.6069   -2.6823 Q=    0.4100 A=    0.0000 R=    0.0000 C=    0.0000
 XYZ=    8.3906    6.7017   -1.4218 Q=    0.4100 A=    0.0000 R=    0.0000 C=    0.0000
 XYZ=    8.6115    4.3864   -3.1104 Q=   -0.8200 A=    0.0000 R=    0.0000 C=    0.0000
 XYZ=    9.1623    3.6625   -2.6951 Q=    0.4100 A=    0.0000 R=    0.0000 C=    0.0000
 XYZ=    8.7805    5.2490   -2.6336 Q=    0.4100 A=    0.0000 R=    0.0000 C=    0.0000
 XYZ=    9.8334    2.8885   -1.9859 Q=   -0.8200 A=    0.0000 R=    0.0000 C=    0.0000
 XYZ=    9.5800    1.9475   -1.7614 Q=    0.4100 A=    0.0000 R=    0.0000 C=    0.0000
 XYZ=   10.2541    3.3198   -1.1878 Q=    0.4100 A=    0.0000 R=    0.0000 C=    0.0000
 XYZ=   -3.8896    9.6408   -1.5068 Q=   -0.8200 A=    0.0000 R=    0.0000 C=    0.0000
 XYZ=   -4.3009   10.4591   -1.9086 Q=    0.4100 A=    0.0000 R=    0.0000 C=    0.0000
 XYZ=   -4.5872    9.1291   -1.0054 Q=    0.4100 A=    0.0000 R=    0.0000 C=    0.0000
 XYZ=    6.6077    1.3766    6.6874 Q=   -0.8200 A=    0.0000 R=    0.0000 C=    0.0000
 XYZ=    7.3635    1.8977    6.2909 Q=    0.4100 A=    0.0000 R=    0.0000 C=    0.0000
 XYZ=    6.1628    1.9224    7.3974 Q=    0.4100 A=    0.0000 R=    0.0000 C=    0.0000
 XYZ=    6.6647    4.5486   -6.3397 Q=   -0.8200 A=    0.0000 R=    0.0000 C=    0.0000
 XYZ=    7.4286    5.1850   -6.4466 Q=    0.4100 A=    0.0000 R=    0.0000 C=    0.0000
 XYZ=    6.8000    3.7614   -6.9415 Q=    0.4100 A=    0.0000 R=    0.0000 C=    0.0000
 XYZ=    5.9969   -7.3533   -2.1502 Q=   -0.8200 A=    0.0000 R=    0.0000 C=    0.0000
 XYZ=    6.8753   -7.8294   -2.1057 Q=    0.4100 A=    0.0000 R=    0.0000 C=    0.0000
 XYZ=    5.9230   -6.8713   -3.0232 Q=    0.4100 A=    0.0000 R=    0.0000 C=    0.0000
 XYZ=   -2.4726    9.9337    0.4217 Q=   -0.8200 A=    0.0000 R=    0.0000 C=    0.0000
 XYZ=   -3.1409   10.2294    1.1044 Q=    0.4100 A=    0.0000 R=    0.0000 C=    0.0000
 XYZ=   -2.9238    9.8348   -0.4653 Q=    0.4100 A=    0.0000 R=    0.0000 C=    0.0000
 XYZ=   -1.9568   -9.8384   -0.2599 Q=   -0.8200 A=    0.0000 R=    0.0000 C=    0.0000
 XYZ=   -2.8728   -9.6881   -0.6319 Q=    0.4100 A=    0.0000 R=    0.0000 C=    0.0000
 XYZ=   -1.5986  -10.7087   -0.5979 Q=    0.4100 A=    0.0000 R=    0.0000 C=    0.0000
 XYZ=   -3.9854   -9.2861   -1.0739 Q=   -0.8200 A=    0.0000 R=    0.0000 C=    0.0000
 XYZ=   -4.8855   -9.3843   -0.6493 Q=    0.4100 A=    0.0000 R=    0.0000 C=    0.0000
 XYZ=   -3.8821   -9.9687   -1.7974 Q=    0.4100 A=    0.0000 R=    0.0000 C=    0.0000
 XYZ=   -8.3950    3.5476   -6.3218 Q=   -0.8200 A=    0.0000 R=    0.0000 C=    0.0000
 XYZ=   -7.9915    3.1696   -7.1551 Q=    0.4100 A=    0.0000 R=    0.0000 C=    0.0000
 XYZ=   -8.3240    2.8771   -5.5833 Q=    0.4100 A=    0.0000 R=    0.0000 C=    0.0000
 XYZ=    9.9713    2.2115    3.6920 Q=   -0.8200 A=    0.0000 R=    0.0000 C=    0.0000
 XYZ=    9.1629    1.6863    3.4262 Q=    0.4100 A=    0.0000 R=    0.0000 C=    0.0000
 XYZ=   10.7909    1.6563    3.5500 Q=    0.4100 A=    0.0000 R=    0.0000 C=    0.0000
 XYZ=    1.7565   10.4055    1.5980 Q=   -0.8200 A=    0.0000 R=    0.0000 C=    0.0000
 XYZ=    1.3775    9.5941    2.0431 Q=    0.4100 A=    0.0000 R=    0.0000 C=    0.0000
 XYZ=    1.6951   10.3004    0.6054 Q=    0.4100 A=    0.0000 R=    0.0000 C=    0.0000
 XYZ=    1.2719    9.1024   -4.4959 Q=   -0.8200 A=    0.0000 R=    0.0000 C=    0.0000
 XYZ=    0.3416    9.4063   -4.7016 Q=    0.4100 A=    0.0000 R=    0.0000 C=    0.0000
 XYZ=    1.8043    9.0630   -5.3416 Q=    0.4100 A=    0.0000 R=    0.0000 C=    0.0000
 XYZ=   -9.2779   -4.9647    3.5018 Q=   -0.8200 A=    0.0000 R=    0.0000 C=    0.0000
 XYZ=   -8.6927   -5.7521    3.3077 Q=    0.4100 A=    0.0000 R=    0.0000 C=    0.0000
 XYZ=   -9.6185   -5.0258    4.4401 Q=    0.4100 A=    0.0000 R=    0.0000 C=    0.0000
 XYZ=   -5.9078   -9.0154    0.2757 Q=   -0.8200 A=    0.0000 R=    0.0000 C=    0.0000
 XYZ=   -6.4655   -8.2109    0.4802 Q=    0.4100 A=    0.0000 R=    0.0000 C=    0.0000
 XYZ=   -5.3629   -9.2561    1.0791 Q=    0.4100 A=    0.0000 R=    0.0000 C=    0.0000
 XYZ=   -5.6021    6.1775    5.0528 Q=   -0.8200 A=    0.0000 R=    0.0000 C=    0.0000
 XYZ=   -5.8022    7.1337    4.8392 Q=    0.4100 A=    0.0000 R=    0.0000 C=    0.0000
 XYZ=   -5.3766    6.0930    6.0234 Q=    0.4100 A=    0.0000 R=    0.0000 C=    0.0000
 XYZ=    1.6321   -5.8897    8.3360 Q=   -0.8200 A=    0.0000 R=    0.0000 C=    0.0000
 XYZ=    2.1603   -5.7275    7.5025 Q=    0.4100 A=    0.0000 R=    0.0000 C=    0.0000
 XYZ=    2.2119   -6.3388    9.0159 Q=    0.4100 A=    0.0000 R=    0.0000 C=    0.0000
 XYZ=    1.5630    3.6486   -9.7432 Q=   -0.8200 A=    0.0000 R=    0.0000 C=    0.0000
 XYZ=    0.6812    3.6146   -9.2728 Q=    0.4100 A=    0.0000 R=    0.0000 C=    0.0000
 XYZ=    2.3000    3.5204   -9.0795 Q=    0.4100 A=    0.0000 R=    0.0000 C=    0.0000
 XYZ=   -2.2690   -6.1255    7.9011 Q=   -0.8200 A=    0.0000 R=    0.0000 C=    0.0000
 XYZ=   -2.8388   -6.9277    7.7223 Q=    0.4100 A=    0.0000 R=    0.0000 C=    0.0000
 XYZ=   -2.2808   -5.9199    8.8796 Q=    0.4100 A=    0.0000 R=    0.0000 C=    0.0000
 XYZ=    6.8554    4.2210    5.5840 Q=   -0.8200 A=    0.0000 R=    0.0000 C=    0.0000
 XYZ=    7.2995    5.1015    5.7499 Q=    0.4100 A=    0.0000 R=    0.0000 C=    0.0000
 XYZ=    7.5357    3.4898    5.6352 Q=    0.4100 A=    0.0000 R=    0.0000 C=    0.0000
 XYZ=   -1.4649  -10.4066    1.9101 Q=   -0.8200 A=    0.0000 R=    0.0000 C=    0.0000
 XYZ=   -0.5403  -10.1724    2.2103 Q=    0.4100 A=    0.0000 R=    0.0000 C=    0.0000
 XYZ=   -1.5975  -10.0989    0.9679 Q=    0.4100 A=    0.0000 R=    0.0000 C=    0.0000
 XYZ=   -5.0112   -9.7204    2.4100 Q=   -0.8200 A=    0.0000 R=    0.0000 C=    0.0000
 XYZ=   -4.5680   -9.0699    3.0268 Q=    0.4100 A=    0.0000 R=    0.0000 C=    0.0000
 XYZ=   -4.5396  -10.6009    2.4594 Q=    0.4100 A=    0.0000 R=    0.0000 C=    0.0000
 XYZ=   -3.0837   -9.1084    5.7031 Q=   -0.8200 A=    0.0000 R=    0.0000 C=    0.0000
 XYZ=   -3.5336   -8.6568    4.9326 Q=    0.4100 A=    0.0000 R=    0.0000 C=    0.0000
 XYZ=   -3.3671   -8.6719    6.5570 Q=    0.4100 A=    0.0000 R=    0.0000 C=    0.0000
 XYZ=   -5.1281   -6.4426   -6.1084 Q=   -0.8200 A=    0.0000 R=    0.0000 C=    0.0000
 XYZ=   -4.8854   -5.6616   -6.6840 Q=    0.4100 A=    0.0000 R=    0.0000 C=    0.0000
 XYZ=   -5.8812   -6.9469   -6.5310 Q=    0.4100 A=    0.0000 R=    0.0000 C=    0.0000
 XYZ=   -0.7166    9.7852   -5.4059 Q=   -0.8200 A=    0.0000 R=    0.0000 C=    0.0000
 XYZ=   -0.9489   10.7559   -5.3441 Q=    0.4100 A=    0.0000 R=    0.0000 C=    0.0000
 XYZ=   -1.5319    9.2352   -5.2245 Q=    0.4100 A=    0.0000 R=    0.0000 C=    0.0000
 XYZ=   10.1963   -1.4860   -2.5081 Q=   -0.8200 A=    0.0000 R=    0.0000 C=    0.0000
 XYZ=    9.9841   -0.5307   -2.3020 Q=    0.4100 A=    0.0000 R=    0.0000 C=    0.0000
 XYZ=   10.6942   -1.8899   -1.7407 Q=    0.4100 A=    0.0000 R=    0.0000 C=    0.0000
 XYZ=   -1.2617    4.6618    8.6388 Q=   -0.8200 A=    0.0000 R=    0.0000 C=    0.0000
 XYZ=   -1.5802    5.4413    8.0993 Q=    0.4100 A=    0.0000 R=    0.0000 C=    0.0000
 XYZ=   -0.8422    3.9861    8.0327 Q=    0.4100 A=    0.0000 R=    0.0000 C=    0.0000
 XYZ=   -0.2948   -7.1622    7.5028 Q=   -0.8200 A=    0.0000 R=    0.0000 C=    0.0000
 XYZ=    0.5049   -6.6583    7.8295 Q=    0.4100 A=    0.0000 R=    0.0000 C=    0.0000
 XYZ=   -1.1255   -6.7419    7.8680 Q=    0.4100 A=    0.0000 R=    0.0000 C=    0.0000
 XYZ=    8.9283    6.2567    3.6652 Q=   -0.8200 A=    0.0000 R=    0.0000 C=    0.0000
 XYZ=    9.6749    5.6102    3.8219 Q=    0.4100 A=    0.0000 R=    0.0000 C=    0.0000
 XYZ=    8.2408    5.8351    3.0739 Q=    0.4100 A=    0.0000 R=    0.0000 C=    0.0000
 XYZ=   -2.0081    6.6396    7.5627 Q=   -0.8200 A=    0.0000 R=    0.0000 C=    0.0000
 XYZ=   -2.4459    6.0318    6.9001 Q=    0.4100 A=    0.0000 R=    0.0000 C=    0.0000
 XYZ=   -2.6858    6.9491    8.2297 Q=    0.4100 A=    0.0000 R=    0.0000 C=    0.0000
 XYZ=    6.2660   -4.4765   -7.2707 Q=   -0.8200 A=    0.0000 R=    0.0000 C=    0.0000
 XYZ=    6.3497   -4.0283   -6.3807 Q=    0.4100 A=    0.0000 R=    0.0000 C=    0.0000
 XYZ=    7.1749   -4.7252   -7.6055 Q=    0.4100 A=    0.0000 R=    0.0000 C=    0.0000
 XYZ=   -4.9344   -4.4561   -7.7859 Q=   -0.8200 A=    0.0000 R=    0.0000 C=    0.0000
 XYZ=   -4.6602   -4.8934   -8.6424 Q=    0.4100 A=    0.0000 R=    0.0000 C=    0.0000
 XYZ=   -5.4116   -3.6005   -7.9865 Q=    0.4100 A=    0.0000 R=    0.0000 C=    0.0000
 XYZ=    1.4119    9.4571    5.1111 Q=   -0.8200 A=    0.0000 R=    0.0000 C=    0.0000
 XYZ=    1.6624    8.4951    5.0022 Q=    0.4100 A=    0.0000 R=    0.0000 C=    0.0000
 XYZ=    1.1879    9.8464    4.2177 Q=    0.4100 A=    0.0000 R=    0.0000 C=    0.0000
 XYZ=   -7.4095    2.7347   -8.1623 Q=   -0.8200 A=    0.0000 R=    0.0000 C=    0.0000
 XYZ=   -7.6381    3.5268   -8.7284 Q=    0.4100 A=    0.0000 R=    0.0000 C=    0.0000
 XYZ=   -6.4186    2.5997   -8.1626 Q=    0.4100 A=    0.0000 R=    0.0000 C=    0.0000
 XYZ=  -10.8148   -4.6605    1.7362 Q=   -0.8200 A=    0.0000 R=    0.0000 C=    0.0000
 XYZ=  -10.2805   -4.6797    2.5813 Q=    0.4100 A=    0.0000 R=    0.0000 C=    0.0000
 XYZ=  -10.6800   -5.5166    1.2372 Q=    0.4100 A=    0.0000 R=    0.0000 C=    0.0000
 XYZ=   -9.4241    0.9943    7.4855 Q=   -0.8200 A=    0.0000 R=    0.0000 C=    0.0000
 XYZ=   -9.3009    1.8275    8.0248 Q=    0.4100 A=    0.0000 R=    0.0000 C=    0.0000
 XYZ=   -8.6384    0.8705    6.8793 Q=    0.4100 A=    0.0000 R=    0.0000 C=    0.0000
 XYZ=   -3.9207   -9.4550   -4.6129 Q=   -0.8200 A=    0.0000 R=    0.0000 C=    0.0000
 XYZ=   -4.0480   -8.5557   -4.1946 Q=    0.4100 A=    0.0000 R=    0.0000 C=    0.0000
 XYZ=   -4.7843   -9.7615   -5.0133 Q=    0.4100 A=    0.0000 R=    0.0000 C=    0.0000
 XYZ=   -3.7872    9.7297   -6.0972 Q=   -0.8200 A=    0.0000 R=    0.0000 C=    0.0000
 XYZ=   -3.4777    8.9747   -5.5191 Q=    0.4100 A=    0.0000 R=    0.0000 C=    0.0000
 XYZ=   -3.0534    9.9920   -6.7240 Q=    0.4100 A=    0.0000 R=    0.0000 C=    0.0000
 XYZ=    9.5704    4.3758   -5.1932 Q=   -0.8200 A=    0.0000 R=    0.0000 C=    0.0000
 XYZ=    9.1903    4.3938   -4.2684 Q=    0.4100 A=    0.0000 R=    0.0000 C=    0.0000
 XYZ=   10.5690    4.3601   -5.1429 Q=    0.4100 A=    0.0000 R=    0.0000 C=    0.0000
 XYZ=    8.2508   -0.4091    7.3612 Q=   -0.8200 A=    0.0000 R=    0.0000 C=    0.0000
 XYZ=    7.6265    0.2990    7.0314 Q=    0.4100 A=    0.0000 R=    0.0000 C=    0.0000
 XYZ=    9.1317    0.0043    7.5919 Q=    0.4100 A=    0.0000 R=    0.0000 C=    0.0000
 XYZ=   10.1138   -5.3532    0.7502 Q=   -0.8200 A=    0.0000 R=    0.0000 C=    0.0000
 XYZ=    9.3937   -4.9225    1.2942 Q=    0.4100 A=    0.0000 R=    0.0000 C=    0.0000
 XYZ=    9.8098   -5.4363   -0.1989 Q=    0.4100 A=    0.0000 R=    0.0000 C=    0.0000
 XYZ=   10.8007    3.4827    0.0074 Q=   -0.8200 A=    0.0000 R=    0.0000 C=    0.0000
 XYZ=   10.1478    3.6988    0.7334 Q=    0.4100 A=    0.0000 R=    0.0000 C=    0.0000
 XYZ=   11.5466    4.1487    0.0209 Q=    0.4100 A=    0.0000 R=    0.0000 C=    0.0000
 XYZ=    4.6208    1.2937   -9.2732 Q=   -0.8200 A=    0.0000 R=    0.0000 C=    0.0000
 XYZ=    5.5920    1.3916   -9.4901 Q=    0.4100 A=    0.0000 R=    0.0000 C=    0.0000
 XYZ=    4.1515    0.8513  -10.0375 Q=    0.4100 A=    0.0000 R=    0.0000 C=    0.0000
 XYZ=   -5.9975   -7.2446    6.9382 Q=   -0.8200 A=    0.0000 R=    0.0000 C=    0.0000
 XYZ=   -5.8797   -7.1932    5.9465 Q=    0.4100 A=    0.0000 R=    0.0000 C=    0.0000
 XYZ=   -6.3041   -6.3577    7.2838 Q=    0.4100 A=    0.0000 R=    0.0000 C=    0.0000
 XYZ=  -11.3059    0.9870   -2.8139 Q=   -0.8200 A=    0.0000 R=    0.0000 C=    0.0000
 XYZ=  -11.7363    1.2522   -3.6767 Q=    0.4100 A=    0.0000 R=    0.0000 C=    0.0000
 XYZ=  -12.0095    0.8674   -2.1134 Q=    0.4100 A=    0.0000 R=    0.0000 C=    0.0000
 XYZ=    6.1241   -2.4852   -8.6656 Q=   -0.8200 A=    0.0000 R=    0.0000 C=    0.0000
 XYZ=    6.0500   -3.2867   -8.0722 Q=    0.4100 A=    0.0000 R=    0.0000 C=    0.0000
 XYZ=    5.5249   -1.7611   -8.3240 Q=    0.4100 A=    0.0000 R=    0.0000 C=    0.0000
 XYZ=  -12.0785   -2.5472   -1.3851 Q=   -0.8200 A=    0.0000 R=    0.0000 C=    0.0000
 XYZ=  -11.5193   -2.0169   -2.0225 Q=    0.4100 A=    0.0000 R=    0.0000 C=    0.0000
 XYZ=  -11.7062   -2.4578   -0.4613 Q=    0.4100 A=    0.0000 R=    0.0000 C=    0.0000
 XYZ=   -3.4812    9.1756    3.8451 Q=   -0.8200 A=    0.0000 R=    0.0000 C=    0.0000
 XYZ=   -2.8934    9.6549    4.4970 Q=    0.4100 A=    0.0000 R=    0.0000 C=    0.0000
 XYZ=   -3.6503    9.7635    3.0540 Q=    0.4100 A=    0.0000 R=    0.0000 C=    0.0000
 XYZ=    0.4767   -4.1612    9.5035 Q=   -0.8200 A=    0.0000 R=    0.0000 C=    0.0000
 XYZ=    1.0531   -4.8195    9.0194 Q=    0.4100 A=    0.0000 R=    0.0000 C=    0.0000
 XYZ=   -0.3982   -4.5885    9.7314 Q=    0.4100 A=    0.0000 R=    0.0000 C=    0.0000
 XYZ=   -3.1876    3.5311    9.3354 Q=   -0.8200 A=    0.0000 R=    0.0000 C=    0.0000
 XYZ=   -2.2612    3.8572    9.1472 Q=    0.4100 A=    0.0000 R=    0.0000 C=    0.0000
 XYZ=   -3.7241    3.5462    8.4916 Q=    0.4100 A=    0.0000 R=    0.0000 C=    0.0000
 XYZ=   -1.4866    1.3481  -11.1528 Q=   -0.8200 A=    0.0000 R=    0.0000 C=    0.0000
 XYZ=   -1.4378    1.2627  -10.1577 Q=    0.4100 A=    0.0000 R=    0.0000 C=    0.0000
 XYZ=   -1.6258    0.4448  -11.5584 Q=    0.4100 A=    0.0000 R=    0.0000 C=    0.0000
 XYZ=    2.4122    4.2416    8.7500 Q=   -0.8200 A=    0.0000 R=    0.0000 C=    0.0000
 XYZ=    1.5427    4.1822    9.2404 Q=    0.4100 A=    0.0000 R=    0.0000 C=    0.0000
 XYZ=    2.8620    3.3485    8.7595 Q=    0.4100 A=    0.0000 R=    0.0000 C=    0.0000
 XYZ=  -11.0799    2.3845    3.9841 Q=   -0.8200 A=    0.0000 R=    0.0000 C=    0.0000
 XYZ=  -12.0234    2.7157    3.9777 Q=    0.4100 A=    0.0000 R=    0.0000 C=    0.0000
 XYZ=  -10.4545    3.1577    3.8785 Q=    0.4100 A=    0.0000 R=    0.0000 C=    0.0000
 XYZ=   -3.5250   -8.0261   -6.4438 Q=   -0.8200 A=    0.0000 R=    0.0000 C=    0.0000
 XYZ=   -4.1373   -7.3225   -6.0834 Q=    0.4100 A=    0.0000 R=    0.0000 C=    0.0000
 XYZ=   -3.4122   -8.7502   -5.7634 Q=    0.4100 A=    0.0000 R=    0.0000 C=    0.0000
 XYZ=    8.5264    2.4723    5.7595 Q=   -0.8200 A=    0.0000 R=    0.0000 C=    0.0000
 XYZ=    9.0761    2.2425    4.9564 Q=    0.4100 A=    0.0000 R=    0.0000 C=    0.0000
 XYZ=    9.1300    2.7298    6.5141 Q=    0.4100 A=    0.0000 R=    0.0000 C=    0.0000
 XYZ=    7.6798    2.6428   -7.7758 Q=   -0.8200 A=    0.0000 R=    0.0000 C=    0.0000
 XYZ=    8.2353    3.3962   -8.1276 Q=    0.4100 A=    0.0000 R=    0.0000 C=    0.0000
 XYZ=    8.1810    2.1690   -7.0518 Q=    0.4100 A=    0.0000 R=    0.0000 C=    0.0000
 XYZ=    5.9407    4.8613    7.7124 Q=   -0.8200 A=    0.0000 R=    0.0000 C=    0.0000
 XYZ=    6.6762    5.3749    8.1543 Q=    0.4100 A=    0.0000 R=    0.0000 C=    0.0000
 XYZ=    6.1237    4.7943    6.7315 Q=    0.4100 A=    0.0000 R=    0.0000 C=    0.0000
 XYZ=   -6.0631    0.4288    8.9505 Q=   -0.8200 A=    0.0000 R=    0.0000 C=    0.0000
 XYZ=   -6.8080   -0.1314    8.5882 Q=    0.4100 A=    0.0000 R=    0.0000 C=    0.0000
 XYZ=   -5.5329   -0.1065    9.6080 Q=    0.4100 A=    0.0000 R=    0.0000 C=    0.0000
 XYZ=    9.1908    1.8907   -6.0051 Q=   -0.8200 A=    0.0000 R=    0.0000 C=    0.0000
 XYZ=    9.2758    2.8698   -5.8200 Q=    0.4100 A=    0.0000 R=    0.0000 C=    0.0000
 XYZ=    9.9231    1.3979   -5.5350 Q=    0.4100 A=    0.0000 R=    0.0000 C=    0.0000
 XYZ=    8.5958   -6.5797   -3.5107 Q=   -0.8200 A=    0.0000 R=    0.0000 C=    0.0000
 XYZ=    7.7199   -6.2715   -3.8820 Q=    0.4100 A=    0.0000 R=    0.0000 C=    0.0000
 XYZ=    9.3233   -6.3869   -4.1692 Q=    0.4100 A=    0.0000 R=    0.0000 C=    0.0000
 XYZ=   -5.8227    8.4665    4.3425 Q=   -0.8200 A=    0.0000 R=    0.0000 C=    0.0000
 XYZ=   -6.2610    9.3415    4.5476 Q=    0.4100 A=    0.0000 R=    0.0000 C=    0.0000
 XYZ=   -4.8299    8.5679    4.4068 Q=    0.4100 A=    0.0000 R=    0.0000 C=    0.0000
 XYZ=   -2.3048    5.0156   -9.6355 Q=   -0.8200 A=    0.0000 R=    0.0000 C=    0.0000
 XYZ=   -2.1893    5.7879  -10.2601 Q=    0.4100 A=    0.0000 R=    0.0000 C=    0.0000
 XYZ=   -3.1142    4.4913   -9.8999 Q=    0.4100 A=    0.0000 R=    0.0000 C=    0.0000
 XYZ=    8.6266   -0.4589   -6.6189 Q=   -0.8200 A=    0.0000 R=    0.0000 C=    0.0000
 XYZ=    8.9419    0.4729   -6.4388 Q=    0.4100 A=    0.0000 R=    0.0000 C=    0.0000
 XYZ=    9.3079   -1.1113   -6.2871 Q=    0.4100 A=    0.0000 R=    0.0000 C=    0.0000
 XYZ=   -1.2172   11.9635    0.0101 Q=   -0.8200 A=    0.0000 R=    0.0000 C=    0.0000
 XYZ=   -1.5874   11.0351   -0.0242 Q=    0.4100 A=    0.0000 R=    0.0000 C=    0.0000
 XYZ=   -1.9500   12.6211   -0.1647 Q=    0.4100 A=    0.0000 R=    0.0000 C=    0.0000
 XYZ=   -0.0963   -2.6286  -10.5283 Q=   -0.8200 A=    0.0000 R=    0.0000 C=    0.0000
 XYZ=   -0.2899   -3.5588  -10.8402 Q=    0.4100 A=    0.0000 R=    0.0000 C=    0.0000
 XYZ=   -0.2976   -2.5559   -9.5515 Q=    0.4100 A=    0.0000 R=    0.0000 C=    0.0000
 XYZ=    5.7689    2.7132    8.2917 Q=   -0.8200 A=    0.0000 R=    0.0000 C=    0.0000
 XYZ=    6.1767    2.6130    9.1992 Q=    0.4100 A=    0.0000 R=    0.0000 C=    0.0000
 XYZ=    5.8222    3.6701    8.0062 Q=    0.4100 A=    0.0000 R=    0.0000 C=    0.0000
 XYZ=    9.4900   -5.4247   -1.6129 Q=   -0.8200 A=    0.0000 R=    0.0000 C=    0.0000
 XYZ=   10.4642   -5.5252   -1.8151 Q=    0.4100 A=    0.0000 R=    0.0000 C=    0.0000
 XYZ=    8.9536   -5.8867   -2.3192 Q=    0.4100 A=    0.0000 R=    0.0000 C=    0.0000
 XYZ=   -4.0829   10.5379    2.0701 Q=   -0.8200 A=    0.0000 R=    0.0000 C=    0.0000
 XYZ=   -4.8825    9.9852    1.8350 Q=    0.4100 A=    0.0000 R=    0.0000 C=    0.0000
 XYZ=   -4.3460   11.2402    2.7316 Q=    0.4100 A=    0.0000 R=    0.0000 C=    0.0000
 XYZ=  -11.6932   -2.2050   -4.8689 Q=   -0.8200 A=    0.0000 R=    0.0000 C=    0.0000
 XYZ=  -11.4030   -1.7838   -5.7282 Q=    0.4100 A=    0.0000 R=    0.0000 C=    0.0000
 XYZ=  -11.2700   -1.7228   -4.1018 Q=    0.4100 A=    0.0000 R=    0.0000 C=    0.0000
 XYZ=   -4.8127   -1.0306   -9.4659 Q=   -0.8200 A=    0.0000 R=    0.0000 C=    0.0000
 XYZ=   -5.4069   -1.7704   -9.1503 Q=    0.4100 A=    0.0000 R=    0.0000 C=    0.0000
 XYZ=   -4.2326   -1.3632  -10.2095 Q=    0.4100 A=    0.0000 R=    0.0000 C=    0.0000
 XYZ=  -12.8437    0.4961    1.4632 Q=   -0.8200 A=    0.0000 R=    0.0000 C=    0.0000
 XYZ=  -13.5484    1.1598    1.7143 Q=    0.4100 A=    0.0000 R=    0.0000 C=    0.0000
 XYZ=  -12.0870    0.5510    2.1146 Q=    0.4100 A=    0.0000 R=    0.0000 C=    0.0000
 XYZ=   -3.8349   -7.8486    7.6079 Q=   -0.8200 A=    0.0000 R=    0.0000 C=    0.0000
 XYZ=   -3.9021   -8.2035    8.5404 Q=    0.4100 A=    0.0000 R=    0.0000 C=    0.0000
 XYZ=   -4.7413   -7.5679    7.2920 Q=    0.4100 A=    0.0000 R=    0.0000 C=    0.0000
 XYZ=   11.4816   -1.9648   -0.6802 Q=   -0.8200 A=    0.0000 R=    0.0000 C=    0.0000
 XYZ=   11.6661   -2.9125   -0.4197 Q=    0.4100 A=    0.0000 R=    0.0000 C=    0.0000
 XYZ=   11.1549   -1.4575    0.1172 Q=    0.4100 A=    0.0000 R=    0.0000 C=    0.0000
 XYZ=   11.6477    2.1939   -3.3683 Q=   -0.8200 A=    0.0000 R=    0.0000 C=    0.0000
 XYZ=   10.8660    2.5002   -2.8250 Q=    0.4100 A=    0.0000 R=    0.0000 C=    0.0000
 XYZ=   12.3147    1.7485   -2.7709 Q=    0.4100 A=    0.0000 R=    0.0000 C=    0.0000
 XYZ=    9.4274   -7.5141    1.2377 Q=   -0.8200 A=    0.0000 R=    0.0000 C=    0.0000
 XYZ=    9.9376   -6.6560    1.1783 Q=    0.4100 A=    0.0000 R=    0.0000 C=    0.0000
 XYZ=    8.4470   -7.3181    1.2587 Q=    0.4100 A=    0.0000 R=    0.0000 C=    0.0000
 XYZ=  -13.2139   -1.6991    1.3717 Q=   -0.8200 A=    0.0000 R=    0.0000 C=    0.0000
 XYZ=  -13.1901   -0.7043    1.4716 Q=    0.4100 A=    0.0000 R=    0.0000 C=    0.0000
 XYZ=  -12.3081   -2.0290    1.1056 Q=    0.4100 A=    0.0000 R=    0.0000 C=    0.0000
 XYZ=  -10.4986    4.1935    5.9634 Q=   -0.8200 A=    0.0000 R=    0.0000 C=    0.0000
 XYZ=  -10.8991    3.3009    6.1710 Q=    0.4100 A=    0.0000 R=    0.0000 C=    0.0000
 XYZ=   -9.7409    4.0776    5.3211 Q=    0.4100 A=    0.0000 R=    0.0000 C=    0.0000
 XYZ=   -0.9013   -8.5488   -7.2439 Q=   -0.8200 A=    0.0000 R=    0.0000 C=    0.0000
 XYZ=   -1.3807   -8.7088   -8.1069 Q=    0.4100 A=    0.0000 R=    0.0000 C=    0.0000
 XYZ=   -1.5083   -8.0704   -6.6093 Q=    0.4100 A=    0.0000 R=    0.0000 C=    0.0000
 XYZ=    0.6876   12.1423   -1.3133 Q=   -0.8200 A=    0.0000 R=    0.0000 C=    0.0000
 XYZ=    1.0927   11.2408   -1.1609 Q=    0.4100 A=    0.0000 R=    0.0000 C=    0.0000
 XYZ=   -0.2254   12.1705   -0.9063 Q=    0.4100 A=    0.0000 R=    0.0000 C=    0.0000
 XYZ=    6.7211   -1.7738    8.5988 Q=   -0.8200 A=    0.0000 R=    0.0000 C=    0.0000
 XYZ=    7.4623   -1.2551    8.1726 Q=    0.4100 A=    0.0000 R=    0.0000 C=    0.0000
 XYZ=    7.0833   -2.6289    8.9698 Q=    0.4100 A=    0.0000 R=    0.0000 C=    0.0000
 XYZ=    9.9090   -2.1336   -5.8411 Q=   -0.8200 A=    0.0000 R=    0.0000 C=    0.0000
 XYZ=   10.7113   -1.9055   -5.2893 Q=    0.4100 A=    0.0000 R=    0.0000 C=    0.0000
 XYZ=    9.2961   -2.7199   -5.3115 Q=    0.4100 A=    0.0000 R=    0.0000 C=    0.0000
 XYZ=    7.8897   -1.1637   -8.7341 Q=   -0.8200 A=    0.0000 R=    0.0000 C=    0.0000
 XYZ=    7.9707   -0.7693   -7.8187 Q=    0.4100 A=    0.0000 R=    0.0000 C=    0.0000
 XYZ=    7.0467   -1.6983   -8.7932 Q=    0.4100 A=    0.0000 R=    0.0000 C=    0.0000
 XYZ=    2.4481    1.0896   10.7934 Q=   -0.8200 A=    0.0000 R=    0.0000 C=    0.0000
 XYZ=    2.9679    1.4625   10.0248 Q=    0.4100 A=    0.0000 R=    0.0000 C=    0.0000
 XYZ=    2.7587    0.1586   10.9854 Q=    0.4100 A=    0.0000 R=    0.0000 C=    0.0000
 XYZ=    6.9665    1.2869   -9.5320 Q=   -0.8200 A=    0.0000 R=    0.0000 C=    0.0000
 XYZ=    7.2551    1.7809   -8.7117 Q=    0.4100 A=    0.0000 R=    0.0000 C=    0.0000
 XYZ=    7.2864    0.3408   -9.4810 Q=    0.4100 A=    0.0000 R=    0.0000 C=    0.0000
 XYZ=  -12.8364    0.5150   -1.0631 Q=   -0.8200 A=    0.0000 R=    0.0000 C=    0.0000
 XYZ=  -12.6346    0.3377   -0.0998 Q=    0.4100 A=    0.0000 R=    0.0000 C=    0.0000
 XYZ=  -13.4694   -0.1798   -1.4044 Q=    0.4100 A=    0.0000 R=    0.0000 C=    0.0000
 XYZ=   -3.5926  -11.6062    2.6614 Q=   -0.8200 A=    0.0000 R=    0.0000 C=    0.0000
 XYZ=   -3.5098  -12.5826    2.4618 Q=    0.4100 A=    0.0000 R=    0.0000 C=    0.0000
 XYZ=   -2.7467  -11.1401    2.4021 Q=    0.4100 A=    0.0000 R=    0.0000 C=    0.0000
 XYZ=    0.4163    1.8976   10.1398 Q=   -0.8200 A=    0.0000 R=    0.0000 C=    0.0000
 XYZ=    1.2370    1.5275   10.5752 Q=    0.4100 A=    0.0000 R=    0.0000 C=    0.0000
 XYZ=    0.3490    2.8764   10.3334 Q=    0.4100 A=    0.0000 R=    0.0000 C=    0.0000
 XYZ=   -5.3293    6.0302    7.4855 Q=   -0.8200 A=    0.0000 R=    0.0000 C=    0.0000
 XYZ=   -6.2393    6.1678    7.8766 Q=    0.4100 A=    0.0000 R=    0.0000 C=    0.0000
 XYZ=   -4.6465    6.4744    8.0656 Q=    0.4100 A=    0.0000 R=    0.0000 C=    0.0000
 XYZ=    8.7845    5.6505   -6.8418 Q=   -0.8200 A=    0.0000 R=    0.0000 C=    0.0000
 XYZ=    9.0261    4.9621   -6.1580 Q=    0.4100 A=    0.0000 R=    0.0000 C=    0.0000
 XYZ=    9.0394    5.3211   -7.7509 Q=    0.4100 A=    0.0000 R=    0.0000 C=    0.0000
 XYZ=   -1.5701   -5.1923   10.0204 Q=   -0.8200 A=    0.0000 R=    0.0000 C=    0.0000
 XYZ=   -1.4143   -6.0747   10.4645 Q=    0.4100 A=    0.0000 R=    0.0000 C=    0.0000
 XYZ=   -1.7134   -4.4893   10.7171 Q=    0.4100 A=    0.0000 R=    0.0000 C=    0.0000
 XYZ=  -10.7521   -6.4922    0.3790 Q=   -0.8200 A=    0.0000 R=    0.0000 C=    0.0000
 XYZ=  -11.6574   -6.3781   -0.0302 Q=    0.4100 A=    0.0000 R=    0.0000 C=    0.0000
 XYZ=  -10.6816   -7.4042    0.7833 Q=    0.4100 A=    0.0000 R=    0.0000 C=    0.0000
 XYZ=   12.0880    1.4422    0.4066 Q=   -0.8200 A=    0.0000 R=    0.0000 C=    0.0000
 XYZ=   11.4593    0.7384    0.7374 Q=    0.4100 A=    0.0000 R=    0.0000 C=    0.0000
 XYZ=   11.5851    2.2928    0.2529 Q=    0.4100 A=    0.0000 R=    0.0000 C=    0.0000
 XYZ=  -10.4852    1.1669   -6.2816 Q=   -0.8200 A=    0.0000 R=    0.0000 C=    0.0000
 XYZ=  -11.3148    1.4818   -5.8204 Q=    0.4100 A=    0.0000 R=    0.0000 C=    0.0000
 XYZ=  -10.4492    1.5533   -7.2032 Q=    0.4100 A=    0.0000 R=    0.0000 C=    0.0000
 XYZ=    1.7362   -2.5735   10.9615 Q=   -0.8200 A=    0.0000 R=    0.0000 C=    0.0000
 XYZ=    1.4664   -3.3278   10.3629 Q=    0.4100 A=    0.0000 R=    0.0000 C=    0.0000
 XYZ=    0.9856   -1.9160   11.0281 Q=    0.4100 A=    0.0000 R=    0.0000 C=    0.0000
 XYZ=   -7.6191  -10.3312   -0.7326 Q=   -0.8200 A=    0.0000 R=    0.0000 C=    0.0000
 XYZ=   -8.4526   -9.8157   -0.9313 Q=    0.4100 A=    0.0000 R=    0.0000 C=    0.0000
 XYZ=   -6.8878   -9.6978   -0.4795 Q=    0.4100 A=    0.0000 R=    0.0000 C=    0.0000
 XYZ=  -12.7709   -0.7003    4.7508 Q=   -0.8200 A=    0.0000 R=    0.0000 C=    0.0000
 XYZ=  -13.3931   -1.4004    4.4003 Q=    0.4100 A=    0.0000 R=    0.0000 C=    0.0000
 XYZ=  -12.0560   -0.5211    4.0748 Q=    0.4100 A=    0.0000 R=    0.0000 C=    0.0000
 XYZ=   -2.1195    9.9861   -7.7598 Q=   -0.8200 A=    0.0000 R=    0.0000 C=    0.0000
 XYZ=   -1.6626    9.1119   -7.5953 Q=    0.4100 A=    0.0000 R=    0.0000 C=    0.0000
 XYZ=   -1.4375   10.6807   -7.9885 Q=    0.4100 A=    0.0000 R=    0.0000 C=    0.0000
 XYZ=   -3.6983  -10.9373   -2.8265 Q=   -0.8200 A=    0.0000 R=    0.0000 C=    0.0000
 XYZ=   -4.6068  -11.3528   -2.8720 Q=    0.4100 A=    0.0000 R=    0.0000 C=    0.0000
 XYZ=   -3.5642  -10.3419   -3.6187 Q=    0.4100 A=    0.0000 R=    0.0000 C=    0.0000
 XYZ=    4.1348   11.6430    1.6801 Q=   -0.8200 A=    0.0000 R=    0.0000 C=    0.0000
 XYZ=    3.2769   11.1365    1.7666 Q=    0.4100 A=    0.0000 R=    0.0000 C=    0.0000
 XYZ=    3.9433   12.6245    1.6750 Q=    0.4100 A=    0.0000 R=    0.0000 C=    0.0000
 XYZ=   10.6956    0.5885   -4.8512 Q=   -0.8200 A=    0.0000 R=    0.0000 C=    0.0000
 XYZ=   11.0218    1.3996   -4.3655 Q=    0.4100 A=    0.0000 R=    0.0000 C=    0.0000
 XYZ=   11.1435   -0.2248   -4.4799 Q=    0.4100 A=    0.0000 R=    0.0000 C=    0.0000
 XYZ=  -11.1797    2.0200    6.3261 Q=   -0.8200 A=    0.0000 R=    0.0000 C=    0.0000
 XYZ=  -11.1390    2.0499    5.3274 Q=    0.4100 A=    0.0000 R=    0.0000 C=    0.0000
 XYZ=  -10.5607    1.3109    6.6638 Q=    0.4100 A=    0.0000 R=    0.0000 C=    0.0000
 XYZ=   -4.4236    4.0199  -10.2293 Q=   -0.8200 A=    0.0000 R=    0.0000 C=    0.0000
 XYZ=   -4.9150    4.7311  -10.7321 Q=    0.4100 A=    0.0000 R=    0.0000 C=    0.0000
 XYZ=   -4.0029    3.3843  -10.8767 Q=    0.4100 A=    0.0000 R=    0.0000 C=    0.0000
 XYZ=   -8.2475    0.6119   -9.3906 Q=   -0.8200 A=    0.0000 R=    0.0000 C=    0.0000
 XYZ=   -8.2663    1.1323  -10.2444 Q=    0.4100 A=    0.0000 R=    0.0000 C=    0.0000
 XYZ=   -7.9028    1.1933   -8.6535 Q=    0.4100 A=    0.0000 R=    0.0000 C=    0.0000
 XYZ=   -0.0439   11.8249    2.1116 Q=   -0.8200 A=    0.0000 R=    0.0000 C=    0.0000
 XYZ=   -0.5163   12.0424    1.2574 Q=    0.4100 A=    0.0000 R=    0.0000 C=    0.0000
 XYZ=    0.7890   11.3096    1.9100 Q=    0.4100 A=    0.0000 R=    0.0000 C=    0.0000
 XYZ=   -3.2635    1.3426   10.6108 Q=   -0.8200 A=    0.0000 R=    0.0000 C=    0.0000
 XYZ=   -3.7001    1.4458   11.5046 Q=    0.4100 A=    0.0000 R=    0.0000 C=    0.0000
 XYZ=   -3.3428    2.1989   10.1004 Q=    0.4100 A=    0.0000 R=    0.0000 C=    0.0000
 XYZ=    4.0671   11.2728   -0.7509 Q=   -0.8200 A=    0.0000 R=    0.0000 C=    0.0000
 XYZ=    4.2083   11.3521    0.2359 Q=    0.4100 A=    0.0000 R=    0.0000 C=    0.0000
 XYZ=    4.9515   11.1756   -1.2074 Q=    0.4100 A=    0.0000 R=    0.0000 C=    0.0000
 XYZ=   -6.3002   -2.9964   -9.2213 Q=   -0.8200 A=    0.0000 R=    0.0000 C=    0.0000
 XYZ=   -7.1569   -2.4947   -9.3413 Q=    0.4100 A=    0.0000 R=    0.0000 C=    0.0000
 XYZ=   -6.3155   -3.8219   -9.7856 Q=    0.4100 A=    0.0000 R=    0.0000 C=    0.0000
 XYZ=    1.4420    7.1069    8.7048 Q=   -0.8200 A=    0.0000 R=    0.0000 C=    0.0000
 XYZ=    1.5985    7.2365    9.6840 Q=    0.4100 A=    0.0000 R=    0.0000 C=    0.0000
 XYZ=    2.0870    6.4297    8.3509 Q=    0.4100 A=    0.0000 R=    0.0000 C=    0.0000
 XYZ=   -4.6374   -0.6324   10.5775 Q=   -0.8200 A=    0.0000 R=    0.0000 C=    0.0000
 XYZ=   -3.8530   -0.0123   10.5586 Q=    0.4100 A=    0.0000 R=    0.0000 C=    0.0000
 XYZ=   -5.1825   -0.4554   11.3970 Q=    0.4100 A=    0.0000 R=    0.0000 C=    0.0000
 XYZ=    2.6613    2.3987  -11.4488 Q=   -0.8200 A=    0.0000 R=    0.0000 C=    0.0000
 XYZ=    1.9930    2.8653  -10.8693 Q=    0.4100 A=    0.0000 R=    0.0000 C=    0.0000
 XYZ=    3.4039    3.0291  -11.6751 Q=    0.4100 A=    0.0000 R=    0.0000 C=    0.0000
 XYZ=    5.4210   -1.3041   10.4901 Q=   -0.8200 A=    0.0000 R=    0.0000 C=    0.0000
 XYZ=    5.8799   -1.4955    9.6225 Q=    0.4100 A=    0.0000 R=    0.0000 C=    0.0000
 XYZ=    5.8290   -0.4940   10.9112 Q=    0.4100 A=    0.0000 R=    0.0000 C=    0.0000
 XYZ=  -10.9750   -1.0085   -6.9114 Q=   -0.8200 A=    0.0000 R=    0.0000 C=    0.0000
 XYZ=  -10.6088   -0.1503   -6.5514 Q=    0.4100 A=    0.0000 R=    0.0000 C=    0.0000
 XYZ=  -11.8582   -0.8368   -7.3480 Q=    0.4100 A=    0.0000 R=    0.0000 C=    0.0000
 XYZ=   -4.1652  -11.1229    4.9615 Q=   -0.8200 A=    0.0000 R=    0.0000 C=    0.0000
 XYZ=   -3.8560  -11.3989    4.0514 Q=    0.4100 A=    0.0000 R=    0.0000 C=    0.0000
 XYZ=   -3.7164  -10.2676    5.2207 Q=    0.4100 A=    0.0000 R=    0.0000 C=    0.0000
 XYZ=    0.5171   -8.9722    8.8550 Q=   -0.8200 A=    0.0000 R=    0.0000 C=    0.0000
 XYZ=    0.1335   -8.2250    8.3123 Q=    0.4100 A=    0.0000 R=    0.0000 C=    0.0000
 XYZ=    1.3568   -9.3011    8.4228 Q=    0.4100 A=    0.0000 R=    0.0000 C=    0.0000
 XYZ=   11.6360   -1.4179   -4.2000 Q=   -0.8200 A=    0.0000 R=    0.0000 C=    0.0000
 XYZ=   11.0062   -1.4700   -3.4250 Q=    0.4100 A=    0.0000 R=    0.0000 C=    0.0000
 XYZ=   12.5778   -1.4752   -3.8687 Q=    0.4100 A=    0.0000 R=    0.0000 C=    0.0000
 XYZ=   -7.2742  -10.3454    3.1012 Q=   -0.8200 A=    0.0000 R=    0.0000 C=    0.0000
 XYZ=   -7.1485  -10.9412    3.8944 Q=    0.4100 A=    0.0000 R=    0.0000 C=    0.0000
 XYZ=   -6.3834  -10.0198    2.7843 Q=    0.4100 A=    0.0000 R=    0.0000 C=    0.0000
 XYZ=    8.1174    6.1766    5.9241 Q=   -0.8200 A=    0.0000 R=    0.0000 C=    0.0000
 XYZ=    8.4618    6.4306    5.0203 Q=    0.4100 A=    0.0000 R=    0.0000 C=    0.0000
 XYZ=    8.3811    6.8749    6.5896 Q=    0.4100 A=    0.0000 R=    0.0000 C=    0.0000
[...]
    40  H    0.004760   0.001596   0.000302   0.000000   0.000000  -0.000615
    41  H    0.000011  -0.000204  -0.000006   0.000000   0.000000   0.000051
    42  O   -0.000001   0.000000   0.000000   0.000000   0.000000   0.000018
    43  H    0.000000   0.000000   0.000000   0.000000   0.000000  -0.000001
    44  H    0.000000   0.000000   0.000000   0.000000   0.000000  -0.000002
    45  O    0.000000   0.000000   0.000000   0.000000   0.000000   0.000000
    46  H    0.000000   0.000000   0.000000   0.000000   0.000000   0.000000
    47  H    0.000000   0.000000   0.000000   0.000000   0.000000   0.000000
    48  O    0.000023  -0.000004   0.000021   0.000000   0.000000   0.001259
    49  H   -0.000002   0.000000  -0.000001   0.000000   0.000000  -0.000050
    50  H   -0.000001   0.000000   0.000000   0.000000   0.000000  -0.000011
              31         32         33         34         35         36
     1  C   -0.000634  -0.000133  -0.021040   0.001627  -0.003409   0.001044
     2  H    0.000000   0.000000   0.000021   0.000000  -0.000001   0.000028
     3  H    0.000000   0.000000   0.000052   0.000000  -0.000001   0.000001
     4  C   -0.003839   0.003376   0.008720  -0.003387  -0.002009  -0.000158
     5  H    0.000003  -0.000005   0.000108  -0.000005   0.000006   0.000002
     6  C    0.013521  -0.002540   0.015781   0.000608   0.008059  -0.005167
     7  H    0.002252   0.001331  -0.000006  -0.000002  -0.000006   0.000154
     8  O   -0.001246  -0.000141  -0.000432   0.000017  -0.000232  -0.020337
     9  O    0.000477   0.001572  -0.000018   0.000000   0.000005  -0.046612
    10  H   -0.000010  -0.000137   0.000000   0.000000   0.000000   0.001181
    11  H    0.000001   0.000033   0.000000   0.000000   0.000000  -0.003809
    12  O    0.000000   0.000000   0.000008   0.000000   0.000000  -0.000029
    13  H    0.000000   0.000000  -0.000001   0.000000   0.000000   0.000001
    14  H    0.000000   0.000000   0.000000   0.000000   0.000000   0.000052
    15  O    0.000000   0.000000   0.000055   0.000001  -0.000001   0.000000
    16  H    0.000000   0.000000   0.000000   0.000000   0.000000   0.000000
    17  H    0.000000   0.000000   0.000023   0.000000  -0.000001   0.000000
    18  O    0.000003   0.000000  -0.088769   0.000828  -0.000763   0.000000
    19  H    0.000000   0.000000   0.003392  -0.000404  -0.000142   0.000000
    20  H    0.000000   0.000000  -0.019253  -0.001584   0.003328   0.000000
    21  O    0.000000   0.000000  -0.001879  -0.000006   0.000212   0.000000
    22  H    0.000000   0.000000   0.000001   0.000000   0.000000   0.000000
    23  H    0.000000   0.000000   0.000701  -0.000004  -0.000055   0.000000
    24  O    0.003463   0.007721   0.000002   0.000000   0.000000   0.000084
    25  H    0.001356   0.000654   0.000000   0.000000   0.000000  -0.000001
    26  H   -0.000017   0.000042   0.000000   0.000000   0.000000  -0.000001
    27  O    0.001240   0.111028  -0.000001   0.000000   0.000001  -0.002455
    28  H    0.000012  -0.001031   0.000000   0.000000   0.000000   0.000153
    29  H   -0.000207  -0.004013   0.000000   0.000000   0.000000  -0.000133
    30  O    0.201025   0.131247  -0.000060   0.000003  -0.000042  -0.000065
    31  H    0.274362  -0.000231  -0.000013  -0.000001  -0.000001   0.000001
    32  H   -0.000231   0.166728   0.000001   0.000000   0.000000   0.000005
    33  O   -0.000013   0.000001   8.719772   0.219333   0.233755   0.000000
    34  H   -0.000001   0.000000   0.219333   0.221215  -0.011198   0.000000
    35  H   -0.000001   0.000000   0.233755  -0.011198   0.239355   0.000000
    36  O    0.000001   0.000005   0.000000   0.000000   0.000000   8.939610
    37  H    0.000000  -0.000004   0.000000   0.000000   0.000000   0.136761
    38  H    0.000000   0.000000   0.000000   0.000000   0.000000   0.201192
    39  O    0.000020   0.000137   0.000000   0.000000   0.000000   0.000001
    40  H    0.000034   0.000076   0.000000   0.000000   0.000000   0.000000
    41  H    0.000000  -0.000001   0.000000   0.000000   0.000000   0.000000
    42  O    0.000000   0.000000   0.000458   0.000945  -0.000036   0.000000
    43  H    0.000000   0.000000   0.000467  -0.000042  -0.000001   0.000000
    44  H    0.000000   0.000000  -0.000181   0.000002   0.000002   0.000000
    45  O    0.000000   0.000000  -0.000023   0.000000   0.000005   0.000000
    46  H    0.000000   0.000000   0.000004   0.000000   0.000000   0.000000
    47  H    0.000000   0.000000   0.000000   0.000000   0.000000   0.000000
    48  O    0.000022   0.000015   0.000539  -0.000136  -0.000016   0.000000
    49  H   -0.000016   0.000000  -0.000050  -0.000096   0.000005   0.000000
    50  H    0.000000   0.000000  -0.000020   0.000002   0.000000   0.000000
              37         38         39         40         41         42
     1  C    0.001202  -0.000082   0.000498   0.000328  -0.000002   0.001873
     2  H   -0.000010   0.000000   0.000000   0.000000   0.000000  -0.000004
     3  H    0.000000   0.000000   0.000000   0.000000   0.000000  -0.000107
     4  C    0.001642   0.000048   0.001915   0.000713  -0.000045  -0.004451
     5  H    0.000000   0.000000  -0.000015  -0.000001   0.000000   0.001163
     6  C    0.002650  -0.000122  -0.003227  -0.000741   0.000087   0.002668
     7  H   -0.000032   0.000000  -0.000030  -0.000028   0.000000  -0.000030
     8  O    0.012777   0.000346   0.000028   0.000005   0.000000  -0.000021
     9  O    0.031128  -0.000182   0.000020   0.000007   0.000000   0.000002
    10  H    0.005913   0.000030  -0.000001   0.000000   0.000000   0.000000
    11  H   -0.002321  -0.000018   0.000000   0.000000   0.000000   0.000000
    12  O    0.000024   0.000000   0.000000   0.000000   0.000000   0.000000
    13  H    0.000000   0.000000   0.000000   0.000000   0.000000   0.000000
    14  H   -0.000015   0.000000   0.000000   0.000000   0.000000   0.000000
    15  O    0.000000   0.000000   0.000000   0.000000   0.000000  -0.000015
    16  H    0.000000   0.000000   0.000000   0.000000   0.000000   0.000000
    17  H    0.000000   0.000000   0.000000   0.000000   0.000000   0.000004
    18  O    0.000000   0.000000   0.000001   0.000000   0.000000  -0.059568
    19  H    0.000000   0.000000   0.000000   0.000000   0.000000   0.003066
    20  H    0.000000   0.000000   0.000000   0.000000   0.000000  -0.000917
    21  O    0.000000   0.000000   0.000000   0.000000   0.000000  -0.000980
    22  H    0.000000   0.000000   0.000000   0.000000   0.000000   0.000001
    23  H    0.000000   0.000000   0.000000   0.000000   0.000000  -0.000167
    24  O   -0.000013  -0.000002  -0.140466  -0.014874   0.006714  -0.000002
    25  H    0.000000   0.000000   0.002054   0.004760   0.000011  -0.000001
    26  H    0.000000   0.000000   0.003368   0.001596  -0.000204   0.000000
    27  O   -0.000944   0.000008   0.000339   0.000302  -0.000006   0.000000
    28  H   -0.000030  -0.000005  -0.000009   0.000000   0.000000   0.000000
    29  H    0.001124  -0.000063  -0.000002   0.000000   0.000000   0.000000
    30  O    0.000035   0.000000  -0.001341  -0.000615   0.000051   0.000018
    31  H    0.000000   0.000000   0.000020   0.000034   0.000000   0.000000
    32  H   -0.000004   0.000000   0.000137   0.000076  -0.000001   0.000000
    33  O    0.000000   0.000000   0.000000   0.000000   0.000000   0.000458
    34  H    0.000000   0.000000   0.000000   0.000000   0.000000   0.000945
    35  H    0.000000   0.000000   0.000000   0.000000   0.000000  -0.000036
    36  O    0.136761   0.201192   0.000001   0.000000   0.000000   0.000000
    37  H    0.258713  -0.003441   0.000000   0.000000   0.000000   0.000000
    38  H   -0.003441   0.176925   0.000000   0.000000   0.000000   0.000000
    39  O    0.000000   0.000000   9.015684   0.152636   0.221662   0.000004
    40  H    0.000000   0.000000   0.152636   0.223970  -0.004617   0.000000
    41  H    0.000000   0.000000   0.221662  -0.004617   0.202257   0.000000
    42  O    0.000000   0.000000   0.000004   0.000000   0.000000   8.797539
    43  H    0.000000   0.000000   0.000000   0.000000   0.000000   0.210200
    44  H    0.000000   0.000000  -0.000001   0.000000   0.000000   0.215888
    45  O    0.000000   0.000000   0.000000   0.000000   0.000000   0.000000
    46  H    0.000000   0.000000   0.000000   0.000000   0.000000   0.000000
    47  H    0.000000   0.000000   0.000000   0.000000   0.000000   0.000000
    48  O    0.000000   0.000000  -0.000322   0.000066   0.000002   0.005270
    49  H    0.000000   0.000000   0.000002   0.000000   0.000000   0.000044
    50  H    0.000000   0.000000   0.000020   0.000000   0.000000   0.004995
              43         44         45         46         47         48
     1  C   -0.000412  -0.000606  -0.008188   0.000178   0.000172   0.000715
     2  H    0.000000   0.000000  -0.000017  -0.000037   0.000000   0.000000
     3  H    0.000001   0.000001   0.000003   0.000000   0.000000   0.000000
     4  C   -0.001615   0.004323   0.005812  -0.000132  -0.000131   0.000475
     5  H   -0.000013   0.000020   0.000000   0.000000   0.000000  -0.000156
     6  C    0.000636  -0.002349   0.000243   0.000090  -0.000028  -0.001523
     7  H    0.000000   0.000002   0.000000   0.000000   0.000000   0.000193
     8  O   -0.000001   0.000001   0.000072  -0.000007   0.000000  -0.000022
     9  O    0.000000   0.000000   0.000001   0.000000   0.000000   0.000003
    10  H    0.000000   0.000000  -0.000001   0.000000   0.000000   0.000000
    11  H    0.000000   0.000000   0.000000   0.000000   0.000000   0.000000
    12  O    0.000000   0.000000  -0.009562  -0.000251   0.000333   0.000000
    13  H    0.000000   0.000000   0.003967   0.000229  -0.000041   0.000000
    14  H    0.000000   0.000000   0.000214  -0.000033  -0.000002   0.000000
    15  O    0.000000   0.000000  -0.063302   0.056694  -0.000145   0.000000
    16  H    0.000000   0.000000  -0.000940  -0.004916  -0.000119   0.000000
    17  H    0.000000   0.000000  -0.000223  -0.001020  -0.000043   0.000000
    18  O   -0.000576  -0.000101   0.000069  -0.000042  -0.000005  -0.000696
    19  H   -0.003106   0.000218   0.000000   0.000000   0.000000  -0.000151
    20  H   -0.000186   0.000026   0.000000   0.000000   0.000000  -0.000021
    21  O   -0.000002   0.000037  -0.002273  -0.000942  -0.000057  -0.000002
    22  H    0.000000   0.000000   0.000069  -0.000038  -0.000002   0.000000
    23  H    0.000002  -0.000010  -0.000001  -0.000031  -0.000001   0.000000
    24  O    0.000000   0.000001   0.000000   0.000000   0.000000  -0.000495
    25  H    0.000000   0.000000   0.000000   0.000000   0.000000   0.000023
    26  H    0.000000   0.000000   0.000000   0.000000   0.000000  -0.000004
    27  O    0.000000   0.000000   0.000000   0.000000   0.000000   0.000021
    28  H    0.000000   0.000000   0.000000   0.000000   0.000000   0.000000
    29  H    0.000000   0.000000   0.000000   0.000000   0.000000   0.000000
    30  O   -0.000001  -0.000002   0.000000   0.000000   0.000000   0.001259
    31  H    0.000000   0.000000   0.000000   0.000000   0.000000   0.000022
    32  H    0.000000   0.000000   0.000000   0.000000   0.000000   0.000015
    33  O    0.000467  -0.000181  -0.000023   0.000004   0.000000   0.000539
    34  H   -0.000042   0.000002   0.000000   0.000000   0.000000  -0.000136
    35  H   -0.000001   0.000002   0.000005   0.000000   0.000000  -0.000016
    36  O    0.000000   0.000000   0.000000   0.000000   0.000000   0.000000
    37  H    0.000000   0.000000   0.000000   0.000000   0.000000   0.000000
    38  H    0.000000   0.000000   0.000000   0.000000   0.000000   0.000000
    39  O    0.000000  -0.000001   0.000000   0.000000   0.000000  -0.000322
    40  H    0.000000   0.000000   0.000000   0.000000   0.000000   0.000066
    41  H    0.000000   0.000000   0.000000   0.000000   0.000000   0.000002
    42  O    0.210200   0.215888   0.000000   0.000000   0.000000   0.005270
    43  H    0.179929  -0.008079   0.000000   0.000000   0.000000   0.000630
    44  H   -0.008079   0.209934   0.000000   0.000000   0.000000  -0.000230
    45  O    0.000000   0.000000   8.945655   0.144521   0.213760   0.000000
    46  H    0.000000   0.000000   0.144521   0.211319  -0.006260   0.000000
    47  H    0.000000   0.000000   0.213760  -0.006260   0.181266   0.000000
    48  O    0.000630  -0.000230   0.000000   0.000000   0.000000   8.761166
    49  H   -0.000155  -0.000185   0.000000   0.000000   0.000000   0.211616
    50  H   -0.000509   0.000259   0.000000   0.000000   0.000000   0.206384
              49         50
     1  C    0.000393   0.000022
     2  H    0.000000   0.000000
     3  H    0.000000   0.000000
     4  C    0.000515  -0.000012
     5  H   -0.000020  -0.000022
     6  C   -0.000692  -0.000164
     7  H   -0.000017  -0.000003
     8  O    0.000001   0.000000
     9  O    0.000000   0.000000
    10  H    0.000000   0.000000
    11  H    0.000000   0.000000
    12  O    0.000000   0.000000
    13  H    0.000000   0.000000
    14  H    0.000000   0.000000
    15  O    0.000000   0.000000
    16  H    0.000000   0.000000
    17  H    0.000000   0.000000
    18  O   -0.000104  -0.000080
    19  H   -0.000010  -0.000019
    20  H    0.000011   0.000002
    21  O    0.000000   0.000000
    22  H    0.000000   0.000000
    23  H    0.000000   0.000000
    24  O   -0.000011  -0.000006
    25  H   -0.000002  -0.000001
    26  H    0.000000   0.000000
    27  O   -0.000001   0.000000
    28  H    0.000000   0.000000
    29  H    0.000000   0.000000
    30  O   -0.000050  -0.000011
    31  H   -0.000016   0.000000
    32  H    0.000000   0.000000
    33  O   -0.000050  -0.000020
    34  H   -0.000096   0.000002
    35  H    0.000005   0.000000
    36  O    0.000000   0.000000
    37  H    0.000000   0.000000
    38  H    0.000000   0.000000
    39  O    0.000002   0.000020
    40  H    0.000000   0.000000
    41  H    0.000000   0.000000
    42  O    0.000044   0.004995
    43  H   -0.000155  -0.000509
    44  H   -0.000185   0.000259
    45  O    0.000000   0.000000
    46  H    0.000000   0.000000
    47  H    0.000000   0.000000
    48  O    0.211616   0.206384
    49  H    0.196338  -0.007246
    50  H   -0.007246   0.204799
 Mulliken charges:
               1
     1  C   -0.479240
     2  H    0.200230
     3  H    0.253053
     4  C    0.161784
     5  H    0.228067
     6  C   -0.117628
     7  H    0.186915
     8  O   -0.438010
     9  O   -1.297356
    10  H    0.613358
    11  H    0.679518
    12  O   -1.033154
    13  H    0.570387
    14  H    0.451265
    15  O   -1.285365
    16  H    0.635370
    17  H    0.646849
    18  O   -1.295307
    19  H    0.629119
    20  H    0.602229
    21  O   -1.178730
    22  H    0.649062
    23  H    0.586771
    24  O   -1.209084
    25  H    0.611667
    26  H    0.605743
    27  O   -1.219660
    28  H    0.655459
    29  H    0.630653
    30  O   -1.121726
    31  H    0.508422
    32  H    0.584270
    33  O   -1.071451
    34  H    0.572285
    35  H    0.533180
    36  O   -1.201506
    37  H    0.554843
    38  H    0.625365
    39  O   -1.252978
    40  H    0.636385
    41  H    0.574091
    42  O   -1.177840
    43  H    0.622834
    44  H    0.581027
    45  O   -1.229861
    46  H    0.600674
    47  H    0.611303
    48  O   -1.184624
    49  H    0.599732
    50  H    0.591611
 Sum of Mulliken charges =   0.00000
 Mulliken charges with hydrogens summed into heavy atoms:
               1
     1  C   -0.025957
     4  C    0.389851
     6  C    0.069288
     8  O   -0.438010
     9  O   -0.004480
    12  O   -0.011503
    15  O   -0.003146
    18  O   -0.063959
    21  O    0.057103
    24  O    0.008325
    27  O    0.066452
    30  O   -0.029034
    33  O    0.034014
    36  O   -0.021298
    39  O   -0.042502
    42  O    0.026021
    45  O   -0.017883
    48  O    0.006719
 Electronic spatial extent (au):  <R**2>=          11396.2686
 Charge=              0.0000 electrons
 Dipole moment (field-independent basis, Debye):
    X=              1.0297    Y=             -6.6080    Z=              2.0786  Tot=              7.0034
 Quadrupole moment (field-independent basis, Debye-Ang):
   XX=           -149.5122   YY=           -132.7903   ZZ=           -119.1944
   XY=             81.9744   XZ=             17.6098   YZ=             -1.1686
 Traceless Quadrupole moment (field-independent basis, Debye-Ang):
   XX=            -15.6799   YY=              1.0420   ZZ=             14.6379
   XY=             81.9744   XZ=             17.6098   YZ=             -1.1686
 Octapole moment (field-independent basis, Debye-Ang**2):
  XXX=           -263.0858  YYY=           -259.6312  ZZZ=             14.6020  XYY=            159.9735
  XXY=            157.2797  XXZ=           -114.5396  XZZ=             32.7834  YZZ=            -21.6161
  YYZ=            106.8854  XYZ=             17.3874
 Hexadecapole moment (field-independent basis, Debye-Ang**3):
 XXXX=          -6094.4324 YYYY=          -5499.5083 ZZZZ=          -1122.0013 XXXY=           2403.1307
 XXXZ=            359.5948 YYYX=            697.7546 YYYZ=            255.4810 ZZZX=             10.0898
 ZZZY=            -38.8320 XXYY=          -2519.3992 XXZZ=          -1467.9956 YYZZ=          -1021.8628
 XXYZ=           -169.7633 YYXZ=             44.6460 ZZXY=            164.9173
 N-N= 1.139167092218D+03 E-N=-6.244990162572D+03  KE= 1.250138090086D+03
 Leave Link  601 at Fri Sep 14 18:04:16 2018, MaxMem=    33554432 cpu:        18.2
 (Enter /usr/local/pacerepov1/gaussian/G09D01LINDA/g09/l9999.exe)

 Test job not archived.
 1\1\GINC-RICH133-B16-27-L\SP\RLC-wPBE TD-FC\6-31+G(d)\C3H32O15\ROOT\14
 -Sep-2018\0\\#p td=(nstates=15)/6-31+g(d) lc-wpbe charge\\Acroleina in
  Water\\0,1\C,0,0.485154,0.480443,-1.430142\H,0,1.461403,0.187773,-1.0
 55732\H,0,0.429244,0.878853,-2.437062\C,0,-0.605127,0.346563,-0.658432
 \H,0,-1.591686,0.632893,-1.012412\C,0,-0.508516,-0.199107,0.712798\H,0
 ,-1.458487,-0.272107,1.272438\O,0,0.544883,-0.561317,1.236519\O,0,0.79
 3298,-1.977872,2.220417\H,0,1.127098,-1.490232,1.413697\H,0,1.447218,-
 1.870042,2.969287\O,0,3.989728,0.725288,-0.315813\H,0,3.574998,1.57677
 8,-0.636793\H,0,3.271508,0.056448,-0.123883\O,0,3.429248,2.576288,-1.5
 25523\H,0,4.169778,3.025618,-2.025253\H,0,2.552408,2.816088,-1.942333\
 O,0,-1.270582,3.749188,-1.703533\H,0,-2.115982,3.292498,-1.980633\H,0,
 -1.386892,4.140287,-0.790553\O,0,1.313728,3.226728,-2.454753\H,0,1.316
 328,4.066038,-2.998403\H,0,0.397018,3.070837,-2.086783\O,0,-3.801382,-
 2.499452,1.330817\H,0,-3.552262,-1.771792,1.969957\H,0,-3.654532,-3.38
 8582,1.764397\O,0,-1.332692,-2.085272,3.402367\H,0,-1.345542,-2.924932
 ,3.945357\H,0,-0.426842,-1.964882,2.996177\O,0,-3.067972,-0.680172,2.7
 67817\H,0,-2.820342,0.273718,2.937587\H,0,-2.270992,-1.264032,2.922737
 \O,0,-1.512792,4.310048,0.581087\H,0,-2.512262,4.281507,0.599217\H,0,-
 1.148702,3.663638,1.251637\O,0,2.224688,-4.040342,1.745847\H,0,1.66601
 8,-3.217362,1.642727\H,0,1.654298,-4.790602,2.080127\O,0,-5.271772,-3.
 032002,-0.242453\H,0,-4.533422,-2.781632,0.383757\H,0,-5.219772,-4.009
 912,-0.444973\O,0,-3.440982,2.932458,-2.315393\H,0,-3.939992,3.542668,
 -1.700033\H,0,-3.828812,2.012408,-2.259163\O,0,4.051018,4.062628,0.319
 987\H,0,3.765508,3.434948,-0.404263\H,0,4.013678,5.002478,-0.019643\O,
 0,-5.467492,1.643188,0.216627\H,0,-4.860052,2.371678,0.533487\H,0,-5.4
 22862,1.582198,-0.780553\\Version=EM64L-G09RevD.01\State=1-A\HF=-1759.
 0493697\RMSD=9.231e-09\PG=C01 [X(C3H32O15)]\\@


 ACHIEVEMENT--  THE MAN WHO ROWS THE BOAT GENERALLY 
                DOESN'T HAVE TIME TO ROCK IT.

                   -- FROM THE BACK OF A SUGAR PACKET
 Job cpu time:       0 days  2 hours 39 minutes 53.3 seconds.
 File lengths (MBytes):  RWF=    792 Int=      0 D2E=      0 Chk=     96 Scr=      2
 Normal termination of Gaussian 09 at Fri Sep 14 18:04:25 2018.
