 Entering Gaussian System, Link 0=g09
 Input=Acroleina_water_15_1c.gjf
 Output=Acroleina_water_15_1c.log
 Initial command:
 /usr/local/pacerepov1/gaussian/G09D01LINDA/g09/l1.exe /nv/hp18/holiveira7/scratch/22411828/Gau-7305.inp -scrdir=/nv/hp18/holiveira7/scratch/22411828/
 Entering Link 1 = /usr/local/pacerepov1/gaussian/G09D01LINDA/g09/l1.exe PID=      7306.
  
 Copyright (c) 1988,1990,1992,1993,1995,1998,2003,2009,2013,
            Gaussian, Inc.  All Rights Reserved.
  
 This is part of the Gaussian(R) 09 program.  It is based on
 the Gaussian(R) 03 system (copyright 2003, Gaussian, Inc.),
 the Gaussian(R) 98 system (copyright 1998, Gaussian, Inc.),
 the Gaussian(R) 94 system (copyright 1995, Gaussian, Inc.),
 the Gaussian 92(TM) system (copyright 1992, Gaussian, Inc.),
 the Gaussian 90(TM) system (copyright 1990, Gaussian, Inc.),
 the Gaussian 88(TM) system (copyright 1988, Gaussian, Inc.),
 the Gaussian 86(TM) system (copyright 1986, Carnegie Mellon
 University), and the Gaussian 82(TM) system (copyright 1983,
 Carnegie Mellon University). Gaussian is a federally registered
 trademark of Gaussian, Inc.
  
 This software contains proprietary and confidential information,
 including trade secrets, belonging to Gaussian, Inc.
  
 This software is provided under written license and may be
 used, copied, transmitted, or stored only in accord with that
 written license.
  
 The following legend is applicable only to US Government
 contracts under FAR:
  
                    RESTRICTED RIGHTS LEGEND
  
 Use, reproduction and disclosure by the US Government is
 subject to restrictions as set forth in subparagraphs (a)
 and (c) of the Commercial Computer Software - Restricted
 Rights clause in FAR 52.227-19.
  
 Gaussian, Inc.
 340 Quinnipiac St., Bldg. 40, Wallingford CT 06492
  
  
 ---------------------------------------------------------------
 Warning -- This program may not be used in any manner that
 competes with the business of Gaussian, Inc. or will provide
 assistance to any competitor of Gaussian, Inc.  The licensee
 of this program is prohibited from giving any competitor of
 Gaussian, Inc. access to this program.  By using this program,
 the user acknowledges that Gaussian, Inc. is engaged in the
 business of creating and licensing software in the field of
 computational chemistry and represents and warrants to the
 licensee that it is not a competitor of Gaussian, Inc. and that
 it will not use this program in any manner prohibited above.
 ---------------------------------------------------------------
  

 Cite this work as:
 Gaussian 09, Revision D.01,
 M. J. Frisch, G. W. Trucks, H. B. Schlegel, G. E. Scuseria, 
 M. A. Robb, J. R. Cheeseman, G. Scalmani, V. Barone, B. Mennucci, 
 G. A. Petersson, H. Nakatsuji, M. Caricato, X. Li, H. P. Hratchian, 
 A. F. Izmaylov, J. Bloino, G. Zheng, J. L. Sonnenberg, M. Hada, 
 M. Ehara, K. Toyota, R. Fukuda, J. Hasegawa, M. Ishida, T. Nakajima, 
 Y. Honda, O. Kitao, H. Nakai, T. Vreven, J. A. Montgomery, Jr., 
 J. E. Peralta, F. Ogliaro, M. Bearpark, J. J. Heyd, E. Brothers, 
 K. N. Kudin, V. N. Staroverov, T. Keith, R. Kobayashi, J. Normand, 
 K. Raghavachari, A. Rendell, J. C. Burant, S. S. Iyengar, J. Tomasi, 
 M. Cossi, N. Rega, J. M. Millam, M. Klene, J. E. Knox, J. B. Cross, 
 V. Bakken, C. Adamo, J. Jaramillo, R. Gomperts, R. E. Stratmann, 
 O. Yazyev, A. J. Austin, R. Cammi, C. Pomelli, J. W. Ochterski, 
 R. L. Martin, K. Morokuma, V. G. Zakrzewski, G. A. Voth, 
 P. Salvador, J. J. Dannenberg, S. Dapprich, A. D. Daniels, 
 O. Farkas, J. B. Foresman, J. V. Ortiz, J. Cioslowski, 
 and D. J. Fox, Gaussian, Inc., Wallingford CT, 2013.
 
 ******************************************
 Gaussian 09:  EM64L-G09RevD.01 24-Apr-2013
                14-Sep-2018 
 ******************************************
 %chk=Acrolina_Din_1.chk
 %nprocshared=10
 Will use up to   10 processors via shared memory.
 -------------------------------------------
 #p td=(nstates=15)/6-31+g(d) lc-wpbe charge
 -------------------------------------------
 1/18=10,28=-2,38=1,125=101/1;
 2/12=2,17=6,18=5,40=1/2;
 3/5=1,6=6,7=11,11=9,16=1,25=1,30=1,74=-41/1,2,8,3;
 4//1;
 5/5=2,38=5/2;
 8/6=1,10=2,108=15/1;
 9/41=15,42=1,70=2/14;
 6/7=2,8=2,9=2,10=2/1;
 99/5=1,9=1/99;
 Leave Link    1 at Fri Sep 14 16:34:08 2018, MaxMem=           0 cpu:         2.1
 (Enter /usr/local/pacerepov1/gaussian/G09D01LINDA/g09/l101.exe)
 ------------------
 Acroleina in Water
 ------------------
 Symbolic Z-matrix:
 Charge =  0 Multiplicity = 1
 C                     0.48515   0.48044  -1.43014 
 H                     1.4614    0.18777  -1.05573 
 H                     0.42924   0.87885  -2.43706 
 C                    -0.60513   0.34656  -0.65843 
 H                    -1.59169   0.63289  -1.01241 
 C                    -0.50852  -0.19911   0.7128 
 H                    -1.45849  -0.27211   1.27244 
 O                     0.54488  -0.56132   1.23652 
 O                    -0.1697   -1.47329   3.74355 
 H                     0.23094  -0.84477   3.07686 
 H                     0.31001  -1.38348   4.6164 
 O                     3.06419   1.31275   1.27738 
 H                     2.64872   2.13591   0.89024 
 H                     2.3734    0.59333   1.34993 
 O                     1.25655  -3.40129   3.53988 
 H                     0.60929  -2.641     3.48442 
 H                     0.75476  -4.25821   3.65785 
 O                    -2.35553  -1.59679   4.69243 
 H                    -2.24996  -2.46164   5.18329 
 H                    -1.54031  -1.426     4.13902 
 O                     0.15668   3.86956  -0.08695 
 H                     0.46166   4.72554  -0.50445 
 H                    -0.84145   3.86569  -0.02572 
 O                    -4.47713  -2.10958   3.18595 
 H                    -3.61905  -1.79354   3.59075 
 H                    -4.66349  -3.04464   3.48765 
 O                     2.36036   3.29491   0.32995 
 H                     2.94837   3.7994   -0.30231 
 H                     1.40461   3.53497   0.15974 
 O                    -2.27759   4.37542  -0.07888 
 H                    -3.08738   3.84202  -0.32336 
 H                    -2.33049   4.6391    0.8843 
 O                    -2.33776   3.85334  -4.23075 
 H                    -1.5853    3.70591  -3.5888 
 H                    -3.1472    4.16086  -3.73048 
 O                     5.29621   1.1054    1.04748 
 H                     5.58878   1.35273   0.12374 
 H                     4.29755   1.12296   1.09668 
 O                    -4.84114   3.35146  -0.56326 
 H                    -5.27428   3.96731   0.09489 
 H                    -5.41771   2.54498  -0.69447 
 O                     4.12715  -1.4001   -4.33315 
 H                     3.72478  -1.10939  -5.20129 
 H                     4.54847  -0.61378  -3.88122 
 O                    -2.89434   1.81094  -5.56704 
 H                    -2.63905   2.53971  -4.93158 
 H                    -2.71006   2.10647  -6.50447 
 O                     2.83593  -2.65993   4.95033 
 H                     3.65674  -2.58992   4.38339 
 H                     2.10232  -3.08876   4.42312 
 
 NAtoms=     50 NQM=       50 NQMF=       0 NMMI=      0 NMMIF=      0
                NMic=       0 NMicF=      0.
                    Isotopes and Nuclear Properties:
 (Nuclear quadrupole moments (NQMom) in fm**2, nuclear magnetic moments (NMagM)
  in nuclear magnetons)

  Atom         1           2           3           4           5           6           7           8           9          10
 IAtWgt=          12           1           1          12           1          12           1          16          16           1
 AtmWgt=  12.0000000   1.0078250   1.0078250  12.0000000   1.0078250  12.0000000   1.0078250  15.9949146  15.9949146   1.0078250
 NucSpn=           0           1           1           0           1           0           1           0           0           1
 AtZEff=   0.0000000   0.0000000   0.0000000   0.0000000   0.0000000   0.0000000   0.0000000   0.0000000   0.0000000   0.0000000
 NQMom=    0.0000000   0.0000000   0.0000000   0.0000000   0.0000000   0.0000000   0.0000000   0.0000000   0.0000000   0.0000000
 NMagM=    0.0000000   2.7928460   2.7928460   0.0000000   2.7928460   0.0000000   2.7928460   0.0000000   0.0000000   2.7928460
 AtZNuc=   6.0000000   1.0000000   1.0000000   6.0000000   1.0000000   6.0000000   1.0000000   8.0000000   8.0000000   1.0000000

  Atom        11          12          13          14          15          16          17          18          19          20
 IAtWgt=           1          16           1           1          16           1           1          16           1           1
 AtmWgt=   1.0078250  15.9949146   1.0078250   1.0078250  15.9949146   1.0078250   1.0078250  15.9949146   1.0078250   1.0078250
 NucSpn=           1           0           1           1           0           1           1           0           1           1
 AtZEff=   0.0000000   0.0000000   0.0000000   0.0000000   0.0000000   0.0000000   0.0000000   0.0000000   0.0000000   0.0000000
 NQMom=    0.0000000   0.0000000   0.0000000   0.0000000   0.0000000   0.0000000   0.0000000   0.0000000   0.0000000   0.0000000
 NMagM=    2.7928460   0.0000000   2.7928460   2.7928460   0.0000000   2.7928460   2.7928460   0.0000000   2.7928460   2.7928460
 AtZNuc=   1.0000000   8.0000000   1.0000000   1.0000000   8.0000000   1.0000000   1.0000000   8.0000000   1.0000000   1.0000000

  Atom        21          22          23          24          25          26          27          28          29          30
 IAtWgt=          16           1           1          16           1           1          16           1           1          16
 AtmWgt=  15.9949146   1.0078250   1.0078250  15.9949146   1.0078250   1.0078250  15.9949146   1.0078250   1.0078250  15.9949146
 NucSpn=           0           1           1           0           1           1           0           1           1           0
 AtZEff=   0.0000000   0.0000000   0.0000000   0.0000000   0.0000000   0.0000000   0.0000000   0.0000000   0.0000000   0.0000000
 NQMom=    0.0000000   0.0000000   0.0000000   0.0000000   0.0000000   0.0000000   0.0000000   0.0000000   0.0000000   0.0000000
 NMagM=    0.0000000   2.7928460   2.7928460   0.0000000   2.7928460   2.7928460   0.0000000   2.7928460   2.7928460   0.0000000
 AtZNuc=   8.0000000   1.0000000   1.0000000   8.0000000   1.0000000   1.0000000   8.0000000   1.0000000   1.0000000   8.0000000

  Atom        31          32          33          34          35          36          37          38          39          40
 IAtWgt=           1           1          16           1           1          16           1           1          16           1
 AtmWgt=   1.0078250   1.0078250  15.9949146   1.0078250   1.0078250  15.9949146   1.0078250   1.0078250  15.9949146   1.0078250
 NucSpn=           1           1           0           1           1           0           1           1           0           1
 AtZEff=   0.0000000   0.0000000   0.0000000   0.0000000   0.0000000   0.0000000   0.0000000   0.0000000   0.0000000   0.0000000
 NQMom=    0.0000000   0.0000000   0.0000000   0.0000000   0.0000000   0.0000000   0.0000000   0.0000000   0.0000000   0.0000000
 NMagM=    2.7928460   2.7928460   0.0000000   2.7928460   2.7928460   0.0000000   2.7928460   2.7928460   0.0000000   2.7928460
 AtZNuc=   1.0000000   1.0000000   8.0000000   1.0000000   1.0000000   8.0000000   1.0000000   1.0000000   8.0000000   1.0000000

  Atom        41          42          43          44          45          46          47          48          49          50
 IAtWgt=           1          16           1           1          16           1           1          16           1           1
 AtmWgt=   1.0078250  15.9949146   1.0078250   1.0078250  15.9949146   1.0078250   1.0078250  15.9949146   1.0078250   1.0078250
 NucSpn=           1           0           1           1           0           1           1           0           1           1
 AtZEff=   0.0000000   0.0000000   0.0000000   0.0000000   0.0000000   0.0000000   0.0000000   0.0000000   0.0000000   0.0000000
 NQMom=    0.0000000   0.0000000   0.0000000   0.0000000   0.0000000   0.0000000   0.0000000   0.0000000   0.0000000   0.0000000
 NMagM=    2.7928460   0.0000000   2.7928460   2.7928460   0.0000000   2.7928460   2.7928460   0.0000000   2.7928460   2.7928460
 AtZNuc=   1.0000000   8.0000000   1.0000000   1.0000000   8.0000000   1.0000000   1.0000000   8.0000000   1.0000000   1.0000000
 Background charge distribution read from input stream:
 Point Charges:
 XYZ=   -4.4292    4.0053   -2.7584 Q=   -0.8200 A=    0.0000 R=    0.0000 C=    0.0000
 XYZ=   -4.6029    3.6715   -1.8318 Q=    0.4100 A=    0.0000 R=    0.0000 C=    0.0000
 XYZ=   -4.9806    3.4836   -3.4094 Q=    0.4100 A=    0.0000 R=    0.0000 C=    0.0000
 XYZ=    1.0386   -1.2373    5.7155 Q=   -0.8200 A=    0.0000 R=    0.0000 C=    0.0000
 XYZ=    1.3801   -0.6561    6.4541 Q=    0.4100 A=    0.0000 R=    0.0000 C=    0.0000
 XYZ=    1.8053   -1.7125    5.2837 Q=    0.4100 A=    0.0000 R=    0.0000 C=    0.0000
 XYZ=    3.0339   -0.6735   -6.3186 Q=   -0.8200 A=    0.0000 R=    0.0000 C=    0.0000
 XYZ=    3.4215    0.1029   -6.8157 Q=    0.4100 A=    0.0000 R=    0.0000 C=    0.0000
 XYZ=    2.0357   -0.6182   -6.3400 Q=    0.4100 A=    0.0000 R=    0.0000 C=    0.0000
 XYZ=   -6.5008   -2.0806    1.9569 Q=   -0.8200 A=    0.0000 R=    0.0000 C=    0.0000
 XYZ=   -5.5746   -1.9309    2.3032 Q=    0.4100 A=    0.0000 R=    0.0000 C=    0.0000
 XYZ=   -6.6633   -3.0618    1.8533 Q=    0.4100 A=    0.0000 R=    0.0000 C=    0.0000
 XYZ=    5.9398    1.5820   -1.2895 Q=   -0.8200 A=    0.0000 R=    0.0000 C=    0.0000
 XYZ=    5.7006    2.4471   -1.7306 Q=    0.4100 A=    0.0000 R=    0.0000 C=    0.0000
 XYZ=    5.9437    0.8502   -1.9711 Q=    0.4100 A=    0.0000 R=    0.0000 C=    0.0000
 XYZ=   -4.6118   -0.8506    5.2642 Q=   -0.8200 A=    0.0000 R=    0.0000 C=    0.0000
 XYZ=   -3.6217   -0.8447    5.4046 Q=    0.4100 A=    0.0000 R=    0.0000 C=    0.0000
 XYZ=   -4.8162   -1.1906    4.3463 Q=    0.4100 A=    0.0000 R=    0.0000 C=    0.0000
 XYZ=   -0.9560    4.3449   -6.1159 Q=   -0.8200 A=    0.0000 R=    0.0000 C=    0.0000
 XYZ=   -1.5150    3.8938   -5.4202 Q=    0.4100 A=    0.0000 R=    0.0000 C=    0.0000
 XYZ=   -1.5455    4.6813   -6.8504 Q=    0.4100 A=    0.0000 R=    0.0000 C=    0.0000
 XYZ=    5.7918   -0.1335   -2.9022 Q=   -0.8200 A=    0.0000 R=    0.0000 C=    0.0000
 XYZ=    6.4258   -0.1068   -3.6751 Q=    0.4100 A=    0.0000 R=    0.0000 C=    0.0000
 XYZ=    5.9365   -0.9748   -2.3813 Q=    0.4100 A=    0.0000 R=    0.0000 C=    0.0000
 XYZ=    1.1333    4.9616   -4.7416 Q=   -0.8200 A=    0.0000 R=    0.0000 C=    0.0000
 XYZ=    0.5096    4.6880   -5.4738 Q=    0.4100 A=    0.0000 R=    0.0000 C=    0.0000
 XYZ=    2.0763    4.7841   -5.0235 Q=    0.4100 A=    0.0000 R=    0.0000 C=    0.0000
 XYZ=   -4.8541    0.7007   -4.7803 Q=   -0.8200 A=    0.0000 R=    0.0000 C=    0.0000
 XYZ=   -4.8979   -0.2926   -4.8873 Q=    0.4100 A=    0.0000 R=    0.0000 C=    0.0000
 XYZ=   -3.9698    1.0326   -5.1087 Q=    0.4100 A=    0.0000 R=    0.0000 C=    0.0000
 XYZ=   -6.1792    2.1496    2.3872 Q=   -0.8200 A=    0.0000 R=    0.0000 C=    0.0000
 XYZ=   -5.2213    2.3129    2.6235 Q=    0.4100 A=    0.0000 R=    0.0000 C=    0.0000
 XYZ=   -6.2413    1.8496    1.4353 Q=    0.4100 A=    0.0000 R=    0.0000 C=    0.0000
 XYZ=   -1.9403    6.0755   -1.6937 Q=   -0.8200 A=    0.0000 R=    0.0000 C=    0.0000
 XYZ=   -2.2045    5.3780   -1.0275 Q=    0.4100 A=    0.0000 R=    0.0000 C=    0.0000
 XYZ=   -1.6723    6.9106   -1.2133 Q=    0.4100 A=    0.0000 R=    0.0000 C=    0.0000
 XYZ=    3.6853    4.3919   -4.9804 Q=   -0.8200 A=    0.0000 R=    0.0000 C=    0.0000
 XYZ=    4.6692    4.2739   -5.1149 Q=    0.4100 A=    0.0000 R=    0.0000 C=    0.0000
 XYZ=    3.4584    4.2296   -4.0201 Q=    0.4100 A=    0.0000 R=    0.0000 C=    0.0000
 XYZ=    3.1933    4.7932    2.0052 Q=   -0.8200 A=    0.0000 R=    0.0000 C=    0.0000
 XYZ=    2.9024    4.1174    1.3278 Q=    0.4100 A=    0.0000 R=    0.0000 C=    0.0000
 XYZ=    3.5888    5.5841    1.5383 Q=    0.4100 A=    0.0000 R=    0.0000 C=    0.0000
 XYZ=    6.8941   -0.7515    1.0041 Q=   -0.8200 A=    0.0000 R=    0.0000 C=    0.0000
 XYZ=    6.1147   -0.1264    1.0474 Q=    0.4100 A=    0.0000 R=    0.0000 C=    0.0000
 XYZ=    6.6187   -1.6515    1.3419 Q=    0.4100 A=    0.0000 R=    0.0000 C=    0.0000
 XYZ=    0.4251    6.3805   -2.8439 Q=   -0.8200 A=    0.0000 R=    0.0000 C=    0.0000
 XYZ=   -0.4740    6.1991   -2.4454 Q=    0.4100 A=    0.0000 R=    0.0000 C=    0.0000
 XYZ=    0.5279    5.8542   -3.6880 Q=    0.4100 A=    0.0000 R=    0.0000 C=    0.0000
 XYZ=   -2.4585    4.9799    2.2727 Q=   -0.8200 A=    0.0000 R=    0.0000 C=    0.0000
 XYZ=   -3.4344    4.7625    2.2945 Q=    0.4100 A=    0.0000 R=    0.0000 C=    0.0000
 XYZ=   -2.0022    4.5425    3.0476 Q=    0.4100 A=    0.0000 R=    0.0000 C=    0.0000
 XYZ=   -5.8196    2.8480   -4.1161 Q=   -0.8200 A=    0.0000 R=    0.0000 C=    0.0000
 XYZ=   -6.0525    3.2380   -5.0069 Q=    0.4100 A=    0.0000 R=    0.0000 C=    0.0000
 XYZ=   -5.4074    1.9460   -4.2446 Q=    0.4100 A=    0.0000 R=    0.0000 C=    0.0000
 XYZ=    5.6776   -3.0366   -3.6391 Q=   -0.8200 A=    0.0000 R=    0.0000 C=    0.0000
 XYZ=    6.1647   -2.7027   -2.8320 Q=    0.4100 A=    0.0000 R=    0.0000 C=    0.0000
 XYZ=    4.9512   -2.3929   -3.8800 Q=    0.4100 A=    0.0000 R=    0.0000 C=    0.0000
 XYZ=   -6.6735    1.5622   -0.5448 Q=   -0.8200 A=    0.0000 R=    0.0000 C=    0.0000
 XYZ=   -6.9021    0.5953   -0.4310 Q=    0.4100 A=    0.0000 R=    0.0000 C=    0.0000
 XYZ=   -7.0361    1.8899   -1.4173 Q=    0.4100 A=    0.0000 R=    0.0000 C=    0.0000
 XYZ=    1.6106    5.8454   -0.9567 Q=   -0.8200 A=    0.0000 R=    0.0000 C=    0.0000
 XYZ=    2.5156    5.4515   -1.1175 Q=    0.4100 A=    0.0000 R=    0.0000 C=    0.0000
 XYZ=    1.1720    6.0416   -1.8337 Q=    0.4100 A=    0.0000 R=    0.0000 C=    0.0000
 XYZ=    3.8267    4.8721   -0.9925 Q=   -0.8200 A=    0.0000 R=    0.0000 C=    0.0000
 XYZ=    4.1528    5.3205   -0.1602 Q=    0.4100 A=    0.0000 R=    0.0000 C=    0.0000
 XYZ=    4.5776    4.3625   -1.4126 Q=    0.4100 A=    0.0000 R=    0.0000 C=    0.0000
 XYZ=    2.5143   -5.9240    1.7415 Q=   -0.8200 A=    0.0000 R=    0.0000 C=    0.0000
 XYZ=    1.5410   -5.6989    1.7882 Q=    0.4100 A=    0.0000 R=    0.0000 C=    0.0000
 XYZ=    2.9407   -5.7451    2.6281 Q=    0.4100 A=    0.0000 R=    0.0000 C=    0.0000
 XYZ=    4.9938   -2.1306    3.9837 Q=   -0.8200 A=    0.0000 R=    0.0000 C=    0.0000
 XYZ=    5.0413   -1.2679    4.4874 Q=    0.4100 A=    0.0000 R=    0.0000 C=    0.0000
 XYZ=    5.3026   -1.9851    3.0438 Q=    0.4100 A=    0.0000 R=    0.0000 C=    0.0000
 XYZ=    0.6643    3.8240   -7.6386 Q=   -0.8200 A=    0.0000 R=    0.0000 C=    0.0000
 XYZ=    0.0155    3.7633   -6.8800 Q=    0.4100 A=    0.0000 R=    0.0000 C=    0.0000
 XYZ=    1.5916    3.6700   -7.2972 Q=    0.4100 A=    0.0000 R=    0.0000 C=    0.0000
 XYZ=    6.5859   -2.0527   -1.7103 Q=   -0.8200 A=    0.0000 R=    0.0000 C=    0.0000
 XYZ=    7.4882   -1.9537   -1.2906 Q=    0.4100 A=    0.0000 R=    0.0000 C=    0.0000
 XYZ=    6.0957   -2.8066   -1.2729 Q=    0.4100 A=    0.0000 R=    0.0000 C=    0.0000
 XYZ=    2.6756    3.2071   -6.9136 Q=   -0.8200 A=    0.0000 R=    0.0000 C=    0.0000
 XYZ=    3.1371    3.8351   -6.2869 Q=    0.4100 A=    0.0000 R=    0.0000 C=    0.0000
 XYZ=    3.2736    2.4291   -7.1063 Q=    0.4100 A=    0.0000 R=    0.0000 C=    0.0000
 XYZ=    5.5657    3.7403   -2.3034 Q=   -0.8200 A=    0.0000 R=    0.0000 C=    0.0000
 XYZ=    6.4263    4.0597   -1.9068 Q=    0.4100 A=    0.0000 R=    0.0000 C=    0.0000
 XYZ=    5.6263    3.7724   -3.3011 Q=    0.4100 A=    0.0000 R=    0.0000 C=    0.0000
 XYZ=   -0.1507   -2.9227    7.1197 Q=   -0.8200 A=    0.0000 R=    0.0000 C=    0.0000
 XYZ=    0.4590   -2.4522    6.4817 Q=    0.4100 A=    0.0000 R=    0.0000 C=    0.0000
 XYZ=   -0.9459   -3.2724    6.6242 Q=    0.4100 A=    0.0000 R=    0.0000 C=    0.0000
 XYZ=    6.1278    2.4598    2.8209 Q=   -0.8200 A=    0.0000 R=    0.0000 C=    0.0000
 XYZ=    5.4930    3.2256    2.9239 Q=    0.4100 A=    0.0000 R=    0.0000 C=    0.0000
 XYZ=    5.7621    1.8112    2.1534 Q=    0.4100 A=    0.0000 R=    0.0000 C=    0.0000
 XYZ=    0.1708   -5.3839    4.1137 Q=   -0.8200 A=    0.0000 R=    0.0000 C=    0.0000
 XYZ=   -0.1625   -6.1873    3.6202 Q=    0.4100 A=    0.0000 R=    0.0000 C=    0.0000
 XYZ=    0.8818   -5.6610    4.7600 Q=    0.4100 A=    0.0000 R=    0.0000 C=    0.0000
 XYZ=   -7.2797   -0.6207   -0.1429 Q=   -0.8200 A=    0.0000 R=    0.0000 C=    0.0000
 XYZ=   -7.7899   -1.2428   -0.7367 Q=    0.4100 A=    0.0000 R=    0.0000 C=    0.0000
 XYZ=   -6.9947   -1.1070    0.6831 Q=    0.4100 A=    0.0000 R=    0.0000 C=    0.0000
 XYZ=    5.8618   -2.7305    1.7050 Q=   -0.8200 A=    0.0000 R=    0.0000 C=    0.0000
 XYZ=    5.8398   -3.2491    0.8502 Q=    0.4100 A=    0.0000 R=    0.0000 C=    0.0000
 XYZ=    6.0302   -3.3537    2.4687 Q=    0.4100 A=    0.0000 R=    0.0000 C=    0.0000
 XYZ=    7.8748    0.9170   -0.2123 Q=   -0.8200 A=    0.0000 R=    0.0000 C=    0.0000
 XYZ=    7.1260    1.3025   -0.7514 Q=    0.4100 A=    0.0000 R=    0.0000 C=    0.0000
 XYZ=    7.5192    0.1998    0.3870 Q=    0.4100 A=    0.0000 R=    0.0000 C=    0.0000
 XYZ=   -4.1713    6.2985   -2.5822 Q=   -0.8200 A=    0.0000 R=    0.0000 C=    0.0000
 XYZ=   -3.2842    6.2633   -2.1219 Q=    0.4100 A=    0.0000 R=    0.0000 C=    0.0000
 XYZ=   -4.4531    5.3727   -2.8340 Q=    0.4100 A=    0.0000 R=    0.0000 C=    0.0000
 XYZ=   -2.2045   -3.6603    6.0148 Q=   -0.8200 A=    0.0000 R=    0.0000 C=    0.0000
 XYZ=   -2.6794   -3.6708    6.8948 Q=    0.4100 A=    0.0000 R=    0.0000 C=    0.0000
 XYZ=   -2.1257   -4.5948    5.6675 Q=    0.4100 A=    0.0000 R=    0.0000 C=    0.0000
 XYZ=   -6.2247    0.5783    5.9761 Q=   -0.8200 A=    0.0000 R=    0.0000 C=    0.0000
 XYZ=   -5.4196    0.1146    5.6060 Q=    0.4100 A=    0.0000 R=    0.0000 C=    0.0000
 XYZ=   -6.8950   -0.1025    6.2714 Q=    0.4100 A=    0.0000 R=    0.0000 C=    0.0000
 XYZ=   -4.7034    4.5085    2.3892 Q=   -0.8200 A=    0.0000 R=    0.0000 C=    0.0000
 XYZ=   -5.4518    4.7489    1.7711 Q=    0.4100 A=    0.0000 R=    0.0000 C=    0.0000
 XYZ=   -5.0003    4.6328    3.3361 Q=    0.4100 A=    0.0000 R=    0.0000 C=    0.0000
 XYZ=    4.7080   -5.7327    0.2906 Q=   -0.8200 A=    0.0000 R=    0.0000 C=    0.0000
 XYZ=    3.8366   -5.5429    0.7429 Q=    0.4100 A=    0.0000 R=    0.0000 C=    0.0000
 XYZ=    4.5872   -6.4762   -0.3671 Q=    0.4100 A=    0.0000 R=    0.0000 C=    0.0000
 XYZ=    5.2415   -0.2547    5.2722 Q=   -0.8200 A=    0.0000 R=    0.0000 C=    0.0000
 XYZ=    5.4930   -0.5943    6.1785 Q=    0.4100 A=    0.0000 R=    0.0000 C=    0.0000
 XYZ=    4.7340    0.6019    5.3663 Q=    0.4100 A=    0.0000 R=    0.0000 C=    0.0000
 XYZ=   -5.1919   -4.3956    3.6469 Q=   -0.8200 A=    0.0000 R=    0.0000 C=    0.0000
 XYZ=   -5.8804   -4.2938    4.3650 Q=    0.4100 A=    0.0000 R=    0.0000 C=    0.0000
 XYZ=   -4.6078   -5.1804    3.8540 Q=    0.4100 A=    0.0000 R=    0.0000 C=    0.0000
 XYZ=    2.2560    0.0190    7.2619 Q=   -0.8200 A=    0.0000 R=    0.0000 C=    0.0000
 XYZ=    2.8802   -0.6358    7.6881 Q=    0.4100 A=    0.0000 R=    0.0000 C=    0.0000
 XYZ=    2.7821    0.6869    6.7355 Q=    0.4100 A=    0.0000 R=    0.0000 C=    0.0000
 XYZ=    1.4445    5.3415    3.4363 Q=   -0.8200 A=    0.0000 R=    0.0000 C=    0.0000
 XYZ=    1.1085    6.1859    3.0191 Q=    0.4100 A=    0.0000 R=    0.0000 C=    0.0000
 XYZ=    2.2431    5.0148    2.9308 Q=    0.4100 A=    0.0000 R=    0.0000 C=    0.0000
 XYZ=    3.7290    1.2220   -7.5205 Q=   -0.8200 A=    0.0000 R=    0.0000 C=    0.0000
 XYZ=    4.7159    1.1000   -7.6269 Q=    0.4100 A=    0.0000 R=    0.0000 C=    0.0000
 XYZ=    3.2773    1.0652   -8.3988 Q=    0.4100 A=    0.0000 R=    0.0000 C=    0.0000
 XYZ=    3.3882   -3.3612    7.0515 Q=   -0.8200 A=    0.0000 R=    0.0000 C=    0.0000
 XYZ=    3.1829   -3.0988    6.1086 Q=    0.4100 A=    0.0000 R=    0.0000 C=    0.0000
 XYZ=    3.5927   -2.5426    7.5883 Q=    0.4100 A=    0.0000 R=    0.0000 C=    0.0000
 XYZ=   -7.6757    0.9098    3.9052 Q=   -0.8200 A=    0.0000 R=    0.0000 C=    0.0000
 XYZ=   -7.0576    1.3447    3.2504 Q=    0.4100 A=    0.0000 R=    0.0000 C=    0.0000
 XYZ=   -7.3540    1.0868    4.8354 Q=    0.4100 A=    0.0000 R=    0.0000 C=    0.0000
 XYZ=    5.2966   -5.3473   -3.0832 Q=   -0.8200 A=    0.0000 R=    0.0000 C=    0.0000
 XYZ=    5.2379   -4.3511   -3.0186 Q=    0.4100 A=    0.0000 R=    0.0000 C=    0.0000
 XYZ=    4.9269   -5.6467   -3.9628 Q=    0.4100 A=    0.0000 R=    0.0000 C=    0.0000
 XYZ=   -5.4007   -2.6451    6.5989 Q=   -0.8200 A=    0.0000 R=    0.0000 C=    0.0000
 XYZ=   -5.1314   -1.8625    6.0376 Q=    0.4100 A=    0.0000 R=    0.0000 C=    0.0000
 XYZ=   -4.6478   -2.8927    7.2087 Q=    0.4100 A=    0.0000 R=    0.0000 C=    0.0000
 XYZ=   -1.9515   -5.8781    5.1111 Q=   -0.8200 A=    0.0000 R=    0.0000 C=    0.0000
 XYZ=   -1.1371   -5.4434    4.7266 Q=    0.4100 A=    0.0000 R=    0.0000 C=    0.0000
 XYZ=   -1.6772   -6.6420    5.6951 Q=    0.4100 A=    0.0000 R=    0.0000 C=    0.0000
 XYZ=   -6.5583   -4.5163    1.7720 Q=   -0.8200 A=    0.0000 R=    0.0000 C=    0.0000
 XYZ=   -6.3679   -5.2673    1.1397 Q=    0.4100 A=    0.0000 R=    0.0000 C=    0.0000
 XYZ=   -5.8798   -4.5191    2.5066 Q=    0.4100 A=    0.0000 R=    0.0000 C=    0.0000
 XYZ=   -7.5347    2.6337   -2.4856 Q=   -0.8200 A=    0.0000 R=    0.0000 C=    0.0000
 XYZ=   -6.9767    2.8637   -3.2830 Q=    0.4100 A=    0.0000 R=    0.0000 C=    0.0000
 XYZ=   -8.4204    2.2821   -2.7888 Q=    0.4100 A=    0.0000 R=    0.0000 C=    0.0000
 XYZ=   -1.6772    6.9986    1.6239 Q=   -0.8200 A=    0.0000 R=    0.0000 C=    0.0000
 XYZ=   -1.8813    7.7295    2.2752 Q=    0.4100 A=    0.0000 R=    0.0000 C=    0.0000
 XYZ=   -2.0844    6.1433    1.9444 Q=    0.4100 A=    0.0000 R=    0.0000 C=    0.0000
 XYZ=   -5.2987    1.5800   -7.0874 Q=   -0.8200 A=    0.0000 R=    0.0000 C=    0.0000
 XYZ=   -5.8973    0.9540   -7.5872 Q=    0.4100 A=    0.0000 R=    0.0000 C=    0.0000
 XYZ=   -5.1196    1.2124   -6.1748 Q=    0.4100 A=    0.0000 R=    0.0000 C=    0.0000
 XYZ=    4.6982   -1.9914   -7.3820 Q=   -0.8200 A=    0.0000 R=    0.0000 C=    0.0000
 XYZ=    4.8383   -2.8650   -6.9158 Q=    0.4100 A=    0.0000 R=    0.0000 C=    0.0000
 XYZ=    3.8136   -1.6092   -7.1149 Q=    0.4100 A=    0.0000 R=    0.0000 C=    0.0000
 XYZ=    6.1000   -4.0143   -0.3073 Q=   -0.8200 A=    0.0000 R=    0.0000 C=    0.0000
 XYZ=    5.5220   -4.8054   -0.1068 Q=    0.4100 A=    0.0000 R=    0.0000 C=    0.0000
 XYZ=    7.0619   -4.2750   -0.2256 Q=    0.4100 A=    0.0000 R=    0.0000 C=    0.0000
 XYZ=   -3.1548   -6.7247    1.8147 Q=   -0.8200 A=    0.0000 R=    0.0000 C=    0.0000
 XYZ=   -3.1340   -7.6905    1.5559 Q=    0.4100 A=    0.0000 R=    0.0000 C=    0.0000
 XYZ=   -3.6641   -6.2065    1.1276 Q=    0.4100 A=    0.0000 R=    0.0000 C=    0.0000
 XYZ=    4.9047    4.3419    3.6297 Q=   -0.8200 A=    0.0000 R=    0.0000 C=    0.0000
 XYZ=    4.5693    4.1336    4.5485 Q=    0.4100 A=    0.0000 R=    0.0000 C=    0.0000
 XYZ=    4.1286    4.4547    3.0092 Q=    0.4100 A=    0.0000 R=    0.0000 C=    0.0000
 XYZ=   -0.7177   -7.0076    2.5296 Q=   -0.8200 A=    0.0000 R=    0.0000 C=    0.0000
 XYZ=   -0.1779   -7.1943    1.7087 Q=    0.4100 A=    0.0000 R=    0.0000 C=    0.0000
 XYZ=   -1.6080   -6.6363    2.2657 Q=    0.4100 A=    0.0000 R=    0.0000 C=    0.0000
 XYZ=    5.1163   -4.0353    5.3288 Q=   -0.8200 A=    0.0000 R=    0.0000 C=    0.0000
 XYZ=    5.1826   -3.1325    4.9039 Q=    0.4100 A=    0.0000 R=    0.0000 C=    0.0000
 XYZ=    4.4640   -4.0002    6.0859 Q=    0.4100 A=    0.0000 R=    0.0000 C=    0.0000
 XYZ=    2.1945    7.3959    0.7209 Q=   -0.8200 A=    0.0000 R=    0.0000 C=    0.0000
 XYZ=    1.4617    7.4912    1.3946 Q=    0.4100 A=    0.0000 R=    0.0000 C=    0.0000
 XYZ=    1.9696    6.6566    0.0861 Q=    0.4100 A=    0.0000 R=    0.0000 C=    0.0000
 XYZ=   -6.1901    4.8950    0.6770 Q=   -0.8200 A=    0.0000 R=    0.0000 C=    0.0000
 XYZ=   -6.2291    5.5165   -0.1054 Q=    0.4100 A=    0.0000 R=    0.0000 C=    0.0000
 XYZ=   -7.0633    4.9168    1.1639 Q=    0.4100 A=    0.0000 R=    0.0000 C=    0.0000
 XYZ=    3.8046    1.6765    6.3886 Q=   -0.8200 A=    0.0000 R=    0.0000 C=    0.0000
 XYZ=    4.2714    1.6783    7.2729 Q=    0.4100 A=    0.0000 R=    0.0000 C=    0.0000
 XYZ=    3.6967    2.6171    6.0668 Q=    0.4100 A=    0.0000 R=    0.0000 C=    0.0000
 XYZ=   -8.3830   -1.2200    3.2071 Q=   -0.8200 A=    0.0000 R=    0.0000 C=    0.0000
 XYZ=   -7.6356   -1.6716    2.7198 Q=    0.4100 A=    0.0000 R=    0.0000 C=    0.0000
 XYZ=   -8.0395   -0.3921    3.6506 Q=    0.4100 A=    0.0000 R=    0.0000 C=    0.0000
 XYZ=   -6.2756   -4.8454   -3.4599 Q=   -0.8200 A=    0.0000 R=    0.0000 C=    0.0000
 XYZ=   -5.6054   -4.1472   -3.2083 Q=    0.4100 A=    0.0000 R=    0.0000 C=    0.0000
 XYZ=   -6.6912   -4.6075   -4.3378 Q=    0.4100 A=    0.0000 R=    0.0000 C=    0.0000
 XYZ=   -2.9662    2.7762   -7.8209 Q=   -0.8200 A=    0.0000 R=    0.0000 C=    0.0000
 XYZ=   -3.9464    2.6326   -7.6840 Q=    0.4100 A=    0.0000 R=    0.0000 C=    0.0000
 XYZ=   -2.7924    3.7456   -7.9940 Q=    0.4100 A=    0.0000 R=    0.0000 C=    0.0000
 XYZ=   -1.7246   -5.5379   -5.2106 Q=   -0.8200 A=    0.0000 R=    0.0000 C=    0.0000
 XYZ=   -1.3281   -5.3655   -4.3088 Q=    0.4100 A=    0.0000 R=    0.0000 C=    0.0000
 XYZ=   -2.3230   -6.3378   -5.1642 Q=    0.4100 A=    0.0000 R=    0.0000 C=    0.0000
 XYZ=    2.5002   -7.7550    0.2034 Q=   -0.8200 A=    0.0000 R=    0.0000 C=    0.0000
 XYZ=    2.3963   -7.0648    0.9194 Q=    0.4100 A=    0.0000 R=    0.0000 C=    0.0000
 XYZ=    3.1300   -7.4173   -0.4962 Q=    0.4100 A=    0.0000 R=    0.0000 C=    0.0000
 XYZ=   -3.9025   -6.2095    4.0108 Q=   -0.8200 A=    0.0000 R=    0.0000 C=    0.0000
 XYZ=   -3.0735   -6.0141    4.5349 Q=    0.4100 A=    0.0000 R=    0.0000 C=    0.0000
 XYZ=   -3.6517   -6.5772    3.1153 Q=    0.4100 A=    0.0000 R=    0.0000 C=    0.0000
 XYZ=    6.0243    4.0434   -4.7515 Q=   -0.8200 A=    0.0000 R=    0.0000 C=    0.0000
 XYZ=    6.5730    4.8790   -4.7807 Q=    0.4100 A=    0.0000 R=    0.0000 C=    0.0000
 XYZ=    6.4212    3.3624   -5.3669 Q=    0.4100 A=    0.0000 R=    0.0000 C=    0.0000
 XYZ=    3.7289   -6.0280    3.9600 Q=   -0.8200 A=    0.0000 R=    0.0000 C=    0.0000
 XYZ=    2.9544   -6.1534    4.5801 Q=    0.4100 A=    0.0000 R=    0.0000 C=    0.0000
 XYZ=    4.3559   -5.3496    4.3428 Q=    0.4100 A=    0.0000 R=    0.0000 C=    0.0000
 XYZ=   -6.1663    6.2410   -1.1054 Q=   -0.8200 A=    0.0000 R=    0.0000 C=    0.0000
 XYZ=   -5.4801    6.2542   -1.8326 Q=    0.4100 A=    0.0000 R=    0.0000 C=    0.0000
 XYZ=   -6.2418    7.1529   -0.7018 Q=    0.4100 A=    0.0000 R=    0.0000 C=    0.0000
 XYZ=    5.8635   -3.8855   -5.8908 Q=   -0.8200 A=    0.0000 R=    0.0000 C=    0.0000
 XYZ=    5.7842   -3.4644   -4.9872 Q=    0.4100 A=    0.0000 R=    0.0000 C=    0.0000
 XYZ=    6.8078   -4.1790   -6.0399 Q=    0.4100 A=    0.0000 R=    0.0000 C=    0.0000
 XYZ=    0.6086    8.7358   -2.6555 Q=   -0.8200 A=    0.0000 R=    0.0000 C=    0.0000
 XYZ=   -0.1525    9.2906   -2.9916 Q=    0.4100 A=    0.0000 R=    0.0000 C=    0.0000
 XYZ=    0.4570    7.7783   -2.9010 Q=    0.4100 A=    0.0000 R=    0.0000 C=    0.0000
 XYZ=    7.0602    0.9895    4.3423 Q=   -0.8200 A=    0.0000 R=    0.0000 C=    0.0000
 XYZ=    6.6084    1.6414    3.7331 Q=    0.4100 A=    0.0000 R=    0.0000 C=    0.0000
 XYZ=    6.3698    0.4743    4.8501 Q=    0.4100 A=    0.0000 R=    0.0000 C=    0.0000
 XYZ=    7.5110   -0.1599   -4.5961 Q=   -0.8200 A=    0.0000 R=    0.0000 C=    0.0000
 XYZ=    8.0906    0.6480   -4.7027 Q=    0.4100 A=    0.0000 R=    0.0000 C=    0.0000
 XYZ=    8.0825   -0.9805   -4.5815 Q=    0.4100 A=    0.0000 R=    0.0000 C=    0.0000
 XYZ=   -1.2533    7.9885   -0.4775 Q=   -0.8200 A=    0.0000 R=    0.0000 C=    0.0000
 XYZ=   -0.4467    8.5758   -0.4090 Q=    0.4100 A=    0.0000 R=    0.0000 C=    0.0000
 XYZ=   -1.3999    7.5207    0.3942 Q=    0.4100 A=    0.0000 R=    0.0000 C=    0.0000
 XYZ=   -9.5816    0.1883   -0.3549 Q=   -0.8200 A=    0.0000 R=    0.0000 C=    0.0000
 XYZ=   -9.9430    1.0711   -0.6551 Q=    0.4100 A=    0.0000 R=    0.0000 C=    0.0000
 XYZ=   -8.5826    0.2271   -0.3329 Q=    0.4100 A=    0.0000 R=    0.0000 C=    0.0000
 XYZ=    1.9945    5.4317    5.9140 Q=   -0.8200 A=    0.0000 R=    0.0000 C=    0.0000
 XYZ=    1.6347    5.2875    4.9922 Q=    0.4100 A=    0.0000 R=    0.0000 C=    0.0000
 XYZ=    1.3830    5.0056    6.5809 Q=    0.4100 A=    0.0000 R=    0.0000 C=    0.0000
 XYZ=   -8.1252    4.1245    1.9798 Q=   -0.8200 A=    0.0000 R=    0.0000 C=    0.0000
 XYZ=   -7.4270    3.4086    1.9951 Q=    0.4100 A=    0.0000 R=    0.0000 C=    0.0000
 XYZ=   -8.9849    3.7592    2.3369 Q=    0.4100 A=    0.0000 R=    0.0000 C=    0.0000
 XYZ=    1.6326    2.7844   -9.9747 Q=   -0.8200 A=    0.0000 R=    0.0000 C=    0.0000
 XYZ=    0.9800    2.7585   -9.2174 Q=    0.4100 A=    0.0000 R=    0.0000 C=    0.0000
 XYZ=    2.0420    3.6950  -10.0308 Q=    0.4100 A=    0.0000 R=    0.0000 C=    0.0000
 XYZ=   -5.4504    4.4601    4.7369 Q=   -0.8200 A=    0.0000 R=    0.0000 C=    0.0000
 XYZ=   -6.2739    5.0036    4.5741 Q=    0.4100 A=    0.0000 R=    0.0000 C=    0.0000
 XYZ=   -5.6728    3.6882    5.3325 Q=    0.4100 A=    0.0000 R=    0.0000 C=    0.0000
 XYZ=   -7.9478    5.0065   -2.1282 Q=   -0.8200 A=    0.0000 R=    0.0000 C=    0.0000
 XYZ=   -7.1480    5.5449   -1.8626 Q=    0.4100 A=    0.0000 R=    0.0000 C=    0.0000
 XYZ=   -7.6951    4.0407   -2.1863 Q=    0.4100 A=    0.0000 R=    0.0000 C=    0.0000
 XYZ=    8.3992   -0.1767    2.8241 Q=   -0.8200 A=    0.0000 R=    0.0000 C=    0.0000
 XYZ=    7.9058    0.4088    3.4674 Q=    0.4100 A=    0.0000 R=    0.0000 C=    0.0000
 XYZ=    7.8489   -0.3025    1.9986 Q=    0.4100 A=    0.0000 R=    0.0000 C=    0.0000
 XYZ=    4.2754    6.4464    0.9569 Q=   -0.8200 A=    0.0000 R=    0.0000 C=    0.0000
 XYZ=    3.4383    6.9731    0.8086 Q=    0.4100 A=    0.0000 R=    0.0000 C=    0.0000
 XYZ=    5.0663    7.0563    0.9057 Q=    0.4100 A=    0.0000 R=    0.0000 C=    0.0000
 XYZ=    0.2860   -7.6753    0.4487 Q=   -0.8200 A=    0.0000 R=    0.0000 C=    0.0000
 XYZ=    1.2505   -7.8516    0.2518 Q=    0.4100 A=    0.0000 R=    0.0000 C=    0.0000
 XYZ=   -0.2722   -8.4117    0.0664 Q=    0.4100 A=    0.0000 R=    0.0000 C=    0.0000
 XYZ=    1.9274   -6.0925    5.6253 Q=   -0.8200 A=    0.0000 R=    0.0000 C=    0.0000
 XYZ=    1.2208   -6.7943    5.5343 Q=    0.4100 A=    0.0000 R=    0.0000 C=    0.0000
 XYZ=    1.8112   -5.6135    6.4954 Q=    0.4100 A=    0.0000 R=    0.0000 C=    0.0000
 XYZ=    0.4943    7.2690    2.3583 Q=   -0.8200 A=    0.0000 R=    0.0000 C=    0.0000
 XYZ=    0.4625    8.0838    2.9372 Q=    0.4100 A=    0.0000 R=    0.0000 C=    0.0000
 XYZ=   -0.4275    7.0525    2.0366 Q=    0.4100 A=    0.0000 R=    0.0000 C=    0.0000
 XYZ=    6.5532   -4.4006    3.3527 Q=   -0.8200 A=    0.0000 R=    0.0000 C=    0.0000
 XYZ=    6.0006   -4.2366    4.1699 Q=    0.4100 A=    0.0000 R=    0.0000 C=    0.0000
 XYZ=    6.2183   -5.2170    2.8823 Q=    0.4100 A=    0.0000 R=    0.0000 C=    0.0000
 XYZ=   -6.3580    2.8352    6.5411 Q=   -0.8200 A=    0.0000 R=    0.0000 C=    0.0000
 XYZ=   -6.2132    2.8048    7.5301 Q=    0.4100 A=    0.0000 R=    0.0000 C=    0.0000
 XYZ=   -6.3384    1.9057    6.1726 Q=    0.4100 A=    0.0000 R=    0.0000 C=    0.0000
 XYZ=    1.5648   -4.6149    7.7540 Q=   -0.8200 A=    0.0000 R=    0.0000 C=    0.0000
 XYZ=    2.4644   -4.1885    7.6593 Q=    0.4100 A=    0.0000 R=    0.0000 C=    0.0000
 XYZ=    0.8547   -3.9145    7.6818 Q=    0.4100 A=    0.0000 R=    0.0000 C=    0.0000
 XYZ=    9.0224   -1.3644   -0.7366 Q=   -0.8200 A=    0.0000 R=    0.0000 C=    0.0000
 XYZ=    8.7020   -0.4237   -0.6256 Q=    0.4100 A=    0.0000 R=    0.0000 C=    0.0000
 XYZ=    9.7047   -1.5691   -0.0348 Q=    0.4100 A=    0.0000 R=    0.0000 C=    0.0000
 XYZ=    0.1763    5.3839   -9.3480 Q=   -0.8200 A=    0.0000 R=    0.0000 C=    0.0000
 XYZ=   -0.3464    4.8429  -10.0068 Q=    0.4100 A=    0.0000 R=    0.0000 C=    0.0000
 XYZ=    0.4164    4.8124   -8.5632 Q=    0.4100 A=    0.0000 R=    0.0000 C=    0.0000
 XYZ=   -5.3540   -6.3135   -0.0266 Q=   -0.8200 A=    0.0000 R=    0.0000 C=    0.0000
 XYZ=   -6.0225   -6.1686   -0.7562 Q=    0.4100 A=    0.0000 R=    0.0000 C=    0.0000
 XYZ=   -5.2319   -7.2946    0.1234 Q=    0.4100 A=    0.0000 R=    0.0000 C=    0.0000
 XYZ=   -1.9343    0.0732    9.3165 Q=   -0.8200 A=    0.0000 R=    0.0000 C=    0.0000
 XYZ=   -1.6700   -0.8755    9.4900 Q=    0.4100 A=    0.0000 R=    0.0000 C=    0.0000
 XYZ=   -2.5218    0.1130    8.5082 Q=    0.4100 A=    0.0000 R=    0.0000 C=    0.0000
 XYZ=    3.9560    4.0296    5.8227 Q=   -0.8200 A=    0.0000 R=    0.0000 C=    0.0000
 XYZ=    4.5217    4.0811    6.6458 Q=    0.4100 A=    0.0000 R=    0.0000 C=    0.0000
 XYZ=    3.1736    4.6452    5.9170 Q=    0.4100 A=    0.0000 R=    0.0000 C=    0.0000
 XYZ=   -2.4143    2.2486  -10.0247 Q=   -0.8200 A=    0.0000 R=    0.0000 C=    0.0000
 XYZ=   -2.4878    2.2546   -9.0275 Q=    0.4100 A=    0.0000 R=    0.0000 C=    0.0000
 XYZ=   -2.2674    1.3118  -10.3424 Q=    0.4100 A=    0.0000 R=    0.0000 C=    0.0000
 XYZ=   -1.2956   -2.2137    9.1416 Q=   -0.8200 A=    0.0000 R=    0.0000 C=    0.0000
 XYZ=   -0.7570   -2.2846    8.3020 Q=    0.4100 A=    0.0000 R=    0.0000 C=    0.0000
 XYZ=   -0.7737   -2.5938    9.9054 Q=    0.4100 A=    0.0000 R=    0.0000 C=    0.0000
 XYZ=   -1.0668   -1.8421   -9.6047 Q=   -0.8200 A=    0.0000 R=    0.0000 C=    0.0000
 XYZ=   -0.7753   -2.6894  -10.0489 Q=    0.4100 A=    0.0000 R=    0.0000 C=    0.0000
 XYZ=   -1.6868   -2.0576   -8.8503 Q=    0.4100 A=    0.0000 R=    0.0000 C=    0.0000
 XYZ=    1.2570    2.1433    8.9418 Q=   -0.8200 A=    0.0000 R=    0.0000 C=    0.0000
 XYZ=    1.4251    1.4078    8.2854 Q=    0.4100 A=    0.0000 R=    0.0000 C=    0.0000
 XYZ=    0.3648    2.0079    9.3728 Q=    0.4100 A=    0.0000 R=    0.0000 C=    0.0000
 XYZ=    9.0085    3.0683   -0.2073 Q=   -0.8200 A=    0.0000 R=    0.0000 C=    0.0000
 XYZ=    8.5023    2.2126   -0.1001 Q=    0.4100 A=    0.0000 R=    0.0000 C=    0.0000
 XYZ=    9.5005    3.2728    0.6390 Q=    0.4100 A=    0.0000 R=    0.0000 C=    0.0000
 XYZ=    5.6310   -6.3984    2.4673 Q=   -0.8200 A=    0.0000 R=    0.0000 C=    0.0000
 XYZ=    5.4022   -6.2546    1.5044 Q=    0.4100 A=    0.0000 R=    0.0000 C=    0.0000
 XYZ=    4.7930   -6.3959    3.0129 Q=    0.4100 A=    0.0000 R=    0.0000 C=    0.0000
 XYZ=    6.9440   -0.9294   -6.8807 Q=   -0.8200 A=    0.0000 R=    0.0000 C=    0.0000
 XYZ=    7.0133   -0.5667   -5.9513 Q=    0.4100 A=    0.0000 R=    0.0000 C=    0.0000
 XYZ=    6.2570   -1.6556   -6.9047 Q=    0.4100 A=    0.0000 R=    0.0000 C=    0.0000
 XYZ=    7.5082    4.6025   -1.2950 Q=   -0.8200 A=    0.0000 R=    0.0000 C=    0.0000
 XYZ=    8.1189    4.0274   -0.7505 Q=    0.4100 A=    0.0000 R=    0.0000 C=    0.0000
 XYZ=    7.4851    5.5241   -0.9076 Q=    0.4100 A=    0.0000 R=    0.0000 C=    0.0000
 XYZ=    4.4806   -7.1671   -1.5539 Q=   -0.8200 A=    0.0000 R=    0.0000 C=    0.0000
 XYZ=    5.1977   -7.8115   -1.2882 Q=    0.4100 A=    0.0000 R=    0.0000 C=    0.0000
 XYZ=    4.8819   -6.4244   -2.0899 Q=    0.4100 A=    0.0000 R=    0.0000 C=    0.0000
 XYZ=    1.1050   -0.8822  -10.0654 Q=   -0.8200 A=    0.0000 R=    0.0000 C=    0.0000
 XYZ=    1.6056   -1.7379  -10.1963 Q=    0.4100 A=    0.0000 R=    0.0000 C=    0.0000
 XYZ=    0.1882   -1.0820   -9.7193 Q=    0.4100 A=    0.0000 R=    0.0000 C=    0.0000
 XYZ=   -6.2410    3.6071   -6.6450 Q=   -0.8200 A=    0.0000 R=    0.0000 C=    0.0000
 XYZ=   -5.5440    4.2647   -6.9310 Q=    0.4100 A=    0.0000 R=    0.0000 C=    0.0000
 XYZ=   -5.9355    2.6807   -6.8654 Q=    0.4100 A=    0.0000 R=    0.0000 C=    0.0000
 XYZ=   -2.4226    5.0640   -8.0763 Q=   -0.8200 A=    0.0000 R=    0.0000 C=    0.0000
 XYZ=   -3.3071    5.0997   -8.5413 Q=    0.4100 A=    0.0000 R=    0.0000 C=    0.0000
 XYZ=   -1.7330    5.5238   -8.6359 Q=    0.4100 A=    0.0000 R=    0.0000 C=    0.0000
 XYZ=   -6.9681   -3.9347    5.6042 Q=   -0.8200 A=    0.0000 R=    0.0000 C=    0.0000
 XYZ=   -7.6750   -3.2763    5.3455 Q=    0.4100 A=    0.0000 R=    0.0000 C=    0.0000
 XYZ=   -6.2870   -3.4832    6.1807 Q=    0.4100 A=    0.0000 R=    0.0000 C=    0.0000
 XYZ=   -4.5135    5.8694    6.2890 Q=   -0.8200 A=    0.0000 R=    0.0000 C=    0.0000
 XYZ=   -5.3998    6.2326    6.5763 Q=    0.4100 A=    0.0000 R=    0.0000 C=    0.0000
 XYZ=   -4.6476    5.2097    5.5495 Q=    0.4100 A=    0.0000 R=    0.0000 C=    0.0000
 XYZ=    2.7967    0.7133   -9.7457 Q=   -0.8200 A=    0.0000 R=    0.0000 C=    0.0000
 XYZ=    2.3385    1.5950   -9.8594 Q=    0.4100 A=    0.0000 R=    0.0000 C=    0.0000
 XYZ=    2.1665   -0.0237   -9.9900 Q=    0.4100 A=    0.0000 R=    0.0000 C=    0.0000
 XYZ=    6.0903    1.1515   -7.6679 Q=   -0.8200 A=    0.0000 R=    0.0000 C=    0.0000
 XYZ=    6.6254    1.8669   -7.2186 Q=    0.4100 A=    0.0000 R=    0.0000 C=    0.0000
 XYZ=    6.4981    0.2592   -7.4746 Q=    0.4100 A=    0.0000 R=    0.0000 C=    0.0000
 XYZ=   -1.5868   -5.5543   -7.4569 Q=   -0.8200 A=    0.0000 R=    0.0000 C=    0.0000
 XYZ=   -0.6214   -5.5152   -7.7147 Q=    0.4100 A=    0.0000 R=    0.0000 C=    0.0000
 XYZ=   -1.6798   -5.3528   -6.4818 Q=    0.4100 A=    0.0000 R=    0.0000 C=    0.0000
 XYZ=   -3.3866   -3.3073    8.1336 Q=   -0.8200 A=    0.0000 R=    0.0000 C=    0.0000
 XYZ=   -2.6350   -2.7553    8.4947 Q=    0.4100 A=    0.0000 R=    0.0000 C=    0.0000
 XYZ=   -3.5449   -4.0897    8.7360 Q=    0.4100 A=    0.0000 R=    0.0000 C=    0.0000
 XYZ=    8.0134    3.6881    3.6226 Q=   -0.8200 A=    0.0000 R=    0.0000 C=    0.0000
 XYZ=    8.1849    3.1088    4.4195 Q=    0.4100 A=    0.0000 R=    0.0000 C=    0.0000
 XYZ=    7.3327    3.2521    3.0339 Q=    0.4100 A=    0.0000 R=    0.0000 C=    0.0000
 XYZ=   -4.0475    8.5563   -3.4019 Q=   -0.8200 A=    0.0000 R=    0.0000 C=    0.0000
 XYZ=   -3.4705    8.7957   -2.6210 Q=    0.4100 A=    0.0000 R=    0.0000 C=    0.0000
 XYZ=   -4.1803    7.5654   -3.4267 Q=    0.4100 A=    0.0000 R=    0.0000 C=    0.0000
 XYZ=    3.8449   -1.3107    8.2902 Q=   -0.8200 A=    0.0000 R=    0.0000 C=    0.0000
 XYZ=    4.0103   -1.1387    9.2613 Q=    0.4100 A=    0.0000 R=    0.0000 C=    0.0000
 XYZ=    4.7075   -1.2453    7.7885 Q=    0.4100 A=    0.0000 R=    0.0000 C=    0.0000
 XYZ=   -7.5718   -1.1479    6.7560 Q=   -0.8200 A=    0.0000 R=    0.0000 C=    0.0000
 XYZ=   -8.3467   -1.7130    6.4730 Q=    0.4100 A=    0.0000 R=    0.0000 C=    0.0000
 XYZ=   -6.7859   -1.7343    6.9526 Q=    0.4100 A=    0.0000 R=    0.0000 C=    0.0000
 XYZ=    8.9781   -2.1186   -4.2474 Q=   -0.8200 A=    0.0000 R=    0.0000 C=    0.0000
 XYZ=    9.7188   -1.8966   -3.6133 Q=    0.4100 A=    0.0000 R=    0.0000 C=    0.0000
 XYZ=    8.3738   -2.7970   -3.8295 Q=    0.4100 A=    0.0000 R=    0.0000 C=    0.0000
 XYZ=    0.8292    9.1484   -0.3543 Q=   -0.8200 A=    0.0000 R=    0.0000 C=    0.0000
 XYZ=    0.8712    9.1342   -1.3533 Q=    0.4100 A=    0.0000 R=    0.0000 C=    0.0000
 XYZ=    1.4523    8.4592    0.0153 Q=    0.4100 A=    0.0000 R=    0.0000 C=    0.0000
 XYZ=   -7.7207   -6.5010    2.5372 Q=   -0.8200 A=    0.0000 R=    0.0000 C=    0.0000
 XYZ=   -8.5398   -6.7420    2.0165 Q=    0.4100 A=    0.0000 R=    0.0000 C=    0.0000
 XYZ=   -7.4689   -5.5530    2.3425 Q=    0.4100 A=    0.0000 R=    0.0000 C=    0.0000
 XYZ=    0.5861    4.2441    8.1698 Q=   -0.8200 A=    0.0000 R=    0.0000 C=    0.0000
 XYZ=    0.8532    4.7672    8.9792 Q=    0.4100 A=    0.0000 R=    0.0000 C=    0.0000
 XYZ=    0.7312    3.2694    8.3401 Q=    0.4100 A=    0.0000 R=    0.0000 C=    0.0000
 XYZ=  -10.1744   -0.8529    1.7695 Q=   -0.8200 A=    0.0000 R=    0.0000 C=    0.0000
 XYZ=   -9.8061   -0.4787    0.9184 Q=    0.4100 A=    0.0000 R=    0.0000 C=    0.0000
 XYZ=   -9.4239   -1.0420    2.4028 Q=    0.4100 A=    0.0000 R=    0.0000 C=    0.0000
 XYZ=    7.2531    2.7066   -6.3946 Q=   -0.8200 A=    0.0000 R=    0.0000 C=    0.0000
 XYZ=    7.5996    3.5628   -6.7778 Q=    0.4100 A=    0.0000 R=    0.0000 C=    0.0000
 XYZ=    7.9124    2.3457   -5.7349 Q=    0.4100 A=    0.0000 R=    0.0000 C=    0.0000
 XYZ=    8.9460    3.9729   -3.2585 Q=   -0.8200 A=    0.0000 R=    0.0000 C=    0.0000
 XYZ=    8.3720    4.2502   -2.4880 Q=    0.4100 A=    0.0000 R=    0.0000 C=    0.0000
 XYZ=    9.9089    4.0936   -3.0171 Q=    0.4100 A=    0.0000 R=    0.0000 C=    0.0000
 XYZ=    7.2420   -6.5781   -2.0318 Q=   -0.8200 A=    0.0000 R=    0.0000 C=    0.0000
 XYZ=    6.5912   -5.9909   -2.5132 Q=    0.4100 A=    0.0000 R=    0.0000 C=    0.0000
 XYZ=    8.0927   -6.6316   -2.5549 Q=    0.4100 A=    0.0000 R=    0.0000 C=    0.0000
 XYZ=   -0.3927   -9.2401    3.6224 Q=   -0.8200 A=    0.0000 R=    0.0000 C=    0.0000
 XYZ=    0.1531   -9.9276    3.1432 Q=    0.4100 A=    0.0000 R=    0.0000 C=    0.0000
 XYZ=   -0.5357   -8.4518    3.0239 Q=    0.4100 A=    0.0000 R=    0.0000 C=    0.0000
 XYZ=   -8.9426   -2.4585    5.2031 Q=   -0.8200 A=    0.0000 R=    0.0000 C=    0.0000
 XYZ=   -8.8376   -2.0194    4.3109 Q=    0.4100 A=    0.0000 R=    0.0000 C=    0.0000
 XYZ=   -9.7752   -3.0124    5.2060 Q=    0.4100 A=    0.0000 R=    0.0000 C=    0.0000
 XYZ=    6.8115    5.7381    3.3136 Q=   -0.8200 A=    0.0000 R=    0.0000 C=    0.0000
 XYZ=    5.9186    5.3311    3.5063 Q=    0.4100 A=    0.0000 R=    0.0000 C=    0.0000
 XYZ=    7.4791    5.0128    3.1454 Q=    0.4100 A=    0.0000 R=    0.0000 C=    0.0000
 XYZ=    4.8593   -2.2492   -9.7916 Q=   -0.8200 A=    0.0000 R=    0.0000 C=    0.0000
 XYZ=    4.7234   -1.9049   -8.8626 Q=    0.4100 A=    0.0000 R=    0.0000 C=    0.0000
 XYZ=    5.7504   -2.6988   -9.8534 Q=    0.4100 A=    0.0000 R=    0.0000 C=    0.0000
 XYZ=  -10.1964    1.0651    3.4414 Q=   -0.8200 A=    0.0000 R=    0.0000 C=    0.0000
 XYZ=   -9.2168    1.0487    3.6415 Q=    0.4100 A=    0.0000 R=    0.0000 C=    0.0000
 XYZ=  -10.4074    0.3720    2.7520 Q=    0.4100 A=    0.0000 R=    0.0000 C=    0.0000
 XYZ=    0.2055   -7.6415    5.4180 Q=   -0.8200 A=    0.0000 R=    0.0000 C=    0.0000
 XYZ=   -0.5111   -7.5757    6.1124 Q=    0.4100 A=    0.0000 R=    0.0000 C=    0.0000
 XYZ=   -0.0025   -8.3955    4.7949 Q=    0.4100 A=    0.0000 R=    0.0000 C=    0.0000
 XYZ=    5.9916   -1.0767    7.4295 Q=   -0.8200 A=    0.0000 R=    0.0000 C=    0.0000
 XYZ=    6.2856   -0.6167    8.2674 Q=    0.4100 A=    0.0000 R=    0.0000 C=    0.0000
 XYZ=    6.6727   -1.7608    7.1683 Q=    0.4100 A=    0.0000 R=    0.0000 C=    0.0000
 XYZ=   -9.5153    4.4200   -0.2789 Q=   -0.8200 A=    0.0000 R=    0.0000 C=    0.0000
 XYZ=   -9.0744    4.9259   -1.0204 Q=    0.4100 A=    0.0000 R=    0.0000 C=    0.0000
 XYZ=   -8.8876    4.3506    0.4964 Q=    0.4100 A=    0.0000 R=    0.0000 C=    0.0000
 XYZ=   -2.1888    0.0143  -10.6827 Q=   -0.8200 A=    0.0000 R=    0.0000 C=    0.0000
 XYZ=   -1.7672   -0.8057  -10.2957 Q=    0.4100 A=    0.0000 R=    0.0000 C=    0.0000
 XYZ=   -3.1834   -0.0896  -10.6805 Q=    0.4100 A=    0.0000 R=    0.0000 C=    0.0000
 XYZ=   -5.2443   -7.5898    5.5058 Q=   -0.8200 A=    0.0000 R=    0.0000 C=    0.0000
 XYZ=   -4.6168   -7.0673    4.9286 Q=    0.4100 A=    0.0000 R=    0.0000 C=    0.0000
 XYZ=   -5.9923   -6.9978    5.8058 Q=    0.4100 A=    0.0000 R=    0.0000 C=    0.0000
 XYZ=   -7.0161   -6.4903   -1.8407 Q=   -0.8200 A=    0.0000 R=    0.0000 C=    0.0000
 XYZ=   -8.0033   -6.5142   -1.6828 Q=    0.4100 A=    0.0000 R=    0.0000 C=    0.0000
 XYZ=   -6.7946   -5.7298   -2.4511 Q=    0.4100 A=    0.0000 R=    0.0000 C=    0.0000
 XYZ=   -2.8963    9.3232   -1.5708 Q=   -0.8200 A=    0.0000 R=    0.0000 C=    0.0000
 XYZ=   -3.6023    9.5479   -0.8991 Q=    0.4100 A=    0.0000 R=    0.0000 C=    0.0000
 XYZ=   -2.0906    8.9637   -1.0999 Q=    0.4100 A=    0.0000 R=    0.0000 C=    0.0000
 XYZ=   -5.0630   -6.8624   -4.2251 Q=   -0.8200 A=    0.0000 R=    0.0000 C=    0.0000
 XYZ=   -5.6037   -6.0545   -3.9907 Q=    0.4100 A=    0.0000 R=    0.0000 C=    0.0000
 XYZ=   -5.4112   -7.6537   -3.7225 Q=    0.4100 A=    0.0000 R=    0.0000 C=    0.0000
 XYZ=    8.8052    1.8823   -4.7114 Q=   -0.8200 A=    0.0000 R=    0.0000 C=    0.0000
 XYZ=    8.7907    2.7141   -4.1564 Q=    0.4100 A=    0.0000 R=    0.0000 C=    0.0000
 XYZ=    9.5406    1.2832   -4.3947 Q=    0.4100 A=    0.0000 R=    0.0000 C=    0.0000
 XYZ=   -0.9437    2.0922    9.8224 Q=   -0.8200 A=    0.0000 R=    0.0000 C=    0.0000
 XYZ=   -1.4080    1.2473    9.5569 Q=    0.4100 A=    0.0000 R=    0.0000 C=    0.0000
 XYZ=   -0.9774    2.1927   10.8168 Q=    0.4100 A=    0.0000 R=    0.0000 C=    0.0000
 XYZ=   -6.8366   -4.0434   -5.6573 Q=   -0.8200 A=    0.0000 R=    0.0000 C=    0.0000
 XYZ=   -6.3183   -4.3857   -6.4411 Q=    0.4100 A=    0.0000 R=    0.0000 C=    0.0000
 XYZ=   -7.5565   -3.4273   -5.9771 Q=    0.4100 A=    0.0000 R=    0.0000 C=    0.0000
 XYZ=    4.9758   -5.5143   -7.4692 Q=   -0.8200 A=    0.0000 R=    0.0000 C=    0.0000
 XYZ=    5.7484   -5.6362   -8.0922 Q=    0.4100 A=    0.0000 R=    0.0000 C=    0.0000
 XYZ=    5.2240   -4.8604   -6.7544 Q=    0.4100 A=    0.0000 R=    0.0000 C=    0.0000
 XYZ=   -9.7935    1.7845   -3.0173 Q=   -0.8200 A=    0.0000 R=    0.0000 C=    0.0000
 XYZ=  -10.1327    2.0821   -2.1249 Q=    0.4100 A=    0.0000 R=    0.0000 C=    0.0000
 XYZ=  -10.5631    1.4960   -3.5870 Q=    0.4100 A=    0.0000 R=    0.0000 C=    0.0000
 XYZ=    8.5743   -5.2960    2.4787 Q=   -0.8200 A=    0.0000 R=    0.0000 C=    0.0000
 XYZ=    7.8248   -4.8203    2.9392 Q=    0.4100 A=    0.0000 R=    0.0000 C=    0.0000
 XYZ=    8.4167   -5.2889    1.4912 Q=    0.4100 A=    0.0000 R=    0.0000 C=    0.0000
 XYZ=   -1.4490    6.6071    6.5099 Q=   -0.8200 A=    0.0000 R=    0.0000 C=    0.0000
 XYZ=   -2.1199    7.1781    6.0368 Q=    0.4100 A=    0.0000 R=    0.0000 C=    0.0000
 XYZ=   -1.8040    6.3515    7.4092 Q=    0.4100 A=    0.0000 R=    0.0000 C=    0.0000
 XYZ=   -7.3942    5.4620    4.2467 Q=   -0.8200 A=    0.0000 R=    0.0000 C=    0.0000
 XYZ=   -7.7803    5.2191    5.1366 Q=    0.4100 A=    0.0000 R=    0.0000 C=    0.0000
 XYZ=   -7.9281    5.0267    3.5217 Q=    0.4100 A=    0.0000 R=    0.0000 C=    0.0000
 XYZ=   -6.9762   -6.1017    6.2080 Q=   -0.8200 A=    0.0000 R=    0.0000 C=    0.0000
 XYZ=   -7.7385   -6.4718    5.6770 Q=    0.4100 A=    0.0000 R=    0.0000 C=    0.0000
 XYZ=   -6.8556   -5.1337    5.9879 Q=    0.4100 A=    0.0000 R=    0.0000 C=    0.0000
 XYZ=   -3.5962   -4.3999   -8.5612 Q=   -0.8200 A=    0.0000 R=    0.0000 C=    0.0000
 XYZ=   -2.7077   -4.7359   -8.2486 Q=    0.4100 A=    0.0000 R=    0.0000 C=    0.0000
 XYZ=   -3.5209   -4.0908   -9.5093 Q=    0.4100 A=    0.0000 R=    0.0000 C=    0.0000
 XYZ=   -1.0158    4.0417  -11.0053 Q=   -0.8200 A=    0.0000 R=    0.0000 C=    0.0000
 XYZ=   -1.5890    3.3902  -10.5083 Q=    0.4100 A=    0.0000 R=    0.0000 C=    0.0000
 XYZ=   -0.3371    3.5441  -11.5455 Q=    0.4100 A=    0.0000 R=    0.0000 C=    0.0000
 XYZ=    8.5181    2.4229    5.7185 Q=   -0.8200 A=    0.0000 R=    0.0000 C=    0.0000
 XYZ=    7.8868    1.7913    5.2683 Q=    0.4100 A=    0.0000 R=    0.0000 C=    0.0000
 XYZ=    9.2893    1.9105    6.0963 Q=    0.4100 A=    0.0000 R=    0.0000 C=    0.0000
 XYZ=   10.6357   -1.5970   -2.4834 Q=   -0.8200 A=    0.0000 R=    0.0000 C=    0.0000
 XYZ=   10.0273   -1.3192   -1.7400 Q=    0.4100 A=    0.0000 R=    0.0000 C=    0.0000
 XYZ=   11.3865   -2.1439   -2.1130 Q=    0.4100 A=    0.0000 R=    0.0000 C=    0.0000
 XYZ=    7.8743    5.6447   -4.5799 Q=   -0.8200 A=    0.0000 R=    0.0000 C=    0.0000
 XYZ=    8.1971    4.8007   -4.1515 Q=    0.4100 A=    0.0000 R=    0.0000 C=    0.0000
 XYZ=    8.0885    5.6259   -5.5565 Q=    0.4100 A=    0.0000 R=    0.0000 C=    0.0000
 XYZ=   10.2445    1.0395    2.1601 Q=   -0.8200 A=    0.0000 R=    0.0000 C=    0.0000
 XYZ=    9.4647    0.4979    2.4741 Q=    0.4100 A=    0.0000 R=    0.0000 C=    0.0000
 XYZ=    9.9594    1.9889    2.0282 Q=    0.4100 A=    0.0000 R=    0.0000 C=    0.0000
 XYZ=   -0.1041    0.0905  -11.8090 Q=   -0.8200 A=    0.0000 R=    0.0000 C=    0.0000
 XYZ=    0.4898   -0.3124  -11.1126 Q=    0.4100 A=    0.0000 R=    0.0000 C=    0.0000
 XYZ=   -1.0527    0.0653  -11.4933 Q=    0.4100 A=    0.0000 R=    0.0000 C=    0.0000
 XYZ=    2.6984   -5.4874   -8.0349 Q=   -0.8200 A=    0.0000 R=    0.0000 C=    0.0000
 XYZ=    2.3647   -6.3539   -7.6635 Q=    0.4100 A=    0.0000 R=    0.0000 C=    0.0000
 XYZ=    3.6615   -5.3698   -7.7926 Q=    0.4100 A=    0.0000 R=    0.0000 C=    0.0000
 XYZ=    8.2082   -5.3717   -0.0474 Q=   -0.8200 A=    0.0000 R=    0.0000 C=    0.0000
 XYZ=    9.2014   -5.2703   -0.1062 Q=    0.4100 A=    0.0000 R=    0.0000 C=    0.0000
 XYZ=    7.8790   -5.8913   -0.8358 Q=    0.4100 A=    0.0000 R=    0.0000 C=    0.0000
 XYZ=   10.7373    1.8989   -1.5622 Q=   -0.8200 A=    0.0000 R=    0.0000 C=    0.0000
 XYZ=    9.9860    2.4002   -1.1329 Q=    0.4100 A=    0.0000 R=    0.0000 C=    0.0000
 XYZ=   11.0945    1.2199   -0.9207 Q=    0.4100 A=    0.0000 R=    0.0000 C=    0.0000
 XYZ=   -6.9716    0.2544   -8.1831 Q=   -0.8200 A=    0.0000 R=    0.0000 C=    0.0000
 XYZ=   -7.9056    0.6075   -8.2376 Q=    0.4100 A=    0.0000 R=    0.0000 C=    0.0000
 XYZ=   -6.9933   -0.7023   -7.8928 Q=    0.4100 A=    0.0000 R=    0.0000 C=    0.0000
 XYZ=   -9.5734    4.2750   -4.0413 Q=   -0.8200 A=    0.0000 R=    0.0000 C=    0.0000
 XYZ=   -9.0160    4.8243   -3.4187 Q=    0.4100 A=    0.0000 R=    0.0000 C=    0.0000
 XYZ=   -9.8859    3.4505   -3.5694 Q=    0.4100 A=    0.0000 R=    0.0000 C=    0.0000
 XYZ=   -1.5850    4.2399    9.0816 Q=   -0.8200 A=    0.0000 R=    0.0000 C=    0.0000
 XYZ=   -0.6875    4.5565    8.7744 Q=    0.4100 A=    0.0000 R=    0.0000 C=    0.0000
 XYZ=   -1.5163    3.2909    9.3893 Q=    0.4100 A=    0.0000 R=    0.0000 C=    0.0000
 XYZ=   -2.9830   -7.6610   -4.9817 Q=   -0.8200 A=    0.0000 R=    0.0000 C=    0.0000
 XYZ=   -3.2038   -7.6797   -5.9569 Q=    0.4100 A=    0.0000 R=    0.0000 C=    0.0000
 XYZ=   -3.7542   -7.2788   -4.4726 Q=    0.4100 A=    0.0000 R=    0.0000 C=    0.0000
 XYZ=   -8.5224    3.0734   -7.2242 Q=   -0.8200 A=    0.0000 R=    0.0000 C=    0.0000
 XYZ=   -9.1149    3.7552   -6.7951 Q=    0.4100 A=    0.0000 R=    0.0000 C=    0.0000
 XYZ=   -7.5656    3.3068   -7.0505 Q=    0.4100 A=    0.0000 R=    0.0000 C=    0.0000
 XYZ=   -7.8506    4.7687    6.3933 Q=   -0.8200 A=    0.0000 R=    0.0000 C=    0.0000
 XYZ=   -7.4256    3.8644    6.4342 Q=    0.4100 A=    0.0000 R=    0.0000 C=    0.0000
 XYZ=   -7.2474    5.4402    6.8238 Q=    0.4100 A=    0.0000 R=    0.0000 C=    0.0000
 XYZ=   -3.2971    5.7905    8.4511 Q=   -0.8200 A=    0.0000 R=    0.0000 C=    0.0000
 XYZ=   -3.6489    5.6941    7.5199 Q=    0.4100 A=    0.0000 R=    0.0000 C=    0.0000
 XYZ=   -2.6203    5.0756    8.6272 Q=    0.4100 A=    0.0000 R=    0.0000 C=    0.0000
 XYZ=   -3.0434   -9.0437    1.3448 Q=   -0.8200 A=    0.0000 R=    0.0000 C=    0.0000
 XYZ=   -3.9018   -9.0563    0.8319 Q=    0.4100 A=    0.0000 R=    0.0000 C=    0.0000
 XYZ=   -2.2788   -9.1979    0.7188 Q=    0.4100 A=    0.0000 R=    0.0000 C=    0.0000
 XYZ=    0.4104    2.3204  -11.9028 Q=   -0.8200 A=    0.0000 R=    0.0000 C=    0.0000
 XYZ=    1.0815    2.5157  -11.1876 Q=    0.4100 A=    0.0000 R=    0.0000 C=    0.0000
 XYZ=    0.2140    1.3400  -11.9168 Q=    0.4100 A=    0.0000 R=    0.0000 C=    0.0000
 XYZ=   -2.3628    8.4636    3.2535 Q=   -0.8200 A=    0.0000 R=    0.0000 C=    0.0000
 XYZ=   -2.7601    8.2729    4.1512 Q=    0.4100 A=    0.0000 R=    0.0000 C=    0.0000
 XYZ=   -2.9041    9.1664    2.7920 Q=    0.4100 A=    0.0000 R=    0.0000 C=    0.0000
 XYZ=   -3.2803    7.8254    5.2430 Q=   -0.8200 A=    0.0000 R=    0.0000 C=    0.0000
 XYZ=   -3.7772    7.1278    5.7591 Q=    0.4100 A=    0.0000 R=    0.0000 C=    0.0000
 XYZ=   -3.7740    8.6935    5.2952 Q=    0.4100 A=    0.0000 R=    0.0000 C=    0.0000
 XYZ=    2.0163    5.2208  -10.7237 Q=   -0.8200 A=    0.0000 R=    0.0000 C=    0.0000
 XYZ=    2.7921    5.7962  -10.4648 Q=    0.4100 A=    0.0000 R=    0.0000 C=    0.0000
 XYZ=    1.2415    5.4155  -10.1222 Q=    0.4100 A=    0.0000 R=    0.0000 C=    0.0000
 XYZ=    0.6846    7.6337    6.2129 Q=   -0.8200 A=    0.0000 R=    0.0000 C=    0.0000
 XYZ=    1.4249    7.0057    5.9726 Q=    0.4100 A=    0.0000 R=    0.0000 C=    0.0000
 XYZ=   -0.1707    7.1229    6.2995 Q=    0.4100 A=    0.0000 R=    0.0000 C=    0.0000
 XYZ=  -10.5601    2.2473   -0.8795 Q=   -0.8200 A=    0.0000 R=    0.0000 C=    0.0000
 XYZ=  -11.5596    2.2483   -0.9108 Q=    0.4100 A=    0.0000 R=    0.0000 C=    0.0000
 XYZ=  -10.2376    3.1160   -0.5033 Q=    0.4100 A=    0.0000 R=    0.0000 C=    0.0000
 XYZ=   -8.0403    0.9873    8.3985 Q=   -0.8200 A=    0.0000 R=    0.0000 C=    0.0000
 XYZ=   -7.6756    0.2511    7.8284 Q=    0.4100 A=    0.0000 R=    0.0000 C=    0.0000
 XYZ=   -7.4446    1.7877    8.3308 Q=    0.4100 A=    0.0000 R=    0.0000 C=    0.0000
 XYZ=    5.4346    1.7062    8.5098 Q=   -0.8200 A=    0.0000 R=    0.0000 C=    0.0000
 XYZ=    6.1601    2.1870    8.0173 Q=    0.4100 A=    0.0000 R=    0.0000 C=    0.0000
 XYZ=    4.9405    2.3534    9.0904 Q=    0.4100 A=    0.0000 R=    0.0000 C=    0.0000
 XYZ=   -1.5416   -7.3460    6.9209 Q=   -0.8200 A=    0.0000 R=    0.0000 C=    0.0000
 XYZ=   -1.3485   -6.7060    7.6646 Q=    0.4100 A=    0.0000 R=    0.0000 C=    0.0000
 XYZ=   -2.4396   -7.7621    7.0640 Q=    0.4100 A=    0.0000 R=    0.0000 C=    0.0000
 XYZ=    1.8854   -4.5974   -9.9700 Q=   -0.8200 A=    0.0000 R=    0.0000 C=    0.0000
 XYZ=    2.2971   -3.7136  -10.1924 Q=    0.4100 A=    0.0000 R=    0.0000 C=    0.0000
 XYZ=    2.2950   -4.9540   -9.1302 Q=    0.4100 A=    0.0000 R=    0.0000 C=    0.0000
 XYZ=   -1.3545   -5.7933    8.5084 Q=   -0.8200 A=    0.0000 R=    0.0000 C=    0.0000
 XYZ=   -0.6068   -5.3635    9.0148 Q=    0.4100 A=    0.0000 R=    0.0000 C=    0.0000
 XYZ=   -2.2252   -5.5713    8.9473 Q=    0.4100 A=    0.0000 R=    0.0000 C=    0.0000
 XYZ=    2.7733   -2.7449  -10.7171 Q=   -0.8200 A=    0.0000 R=    0.0000 C=    0.0000
 XYZ=    3.6190   -2.4054  -10.3053 Q=    0.4100 A=    0.0000 R=    0.0000 C=    0.0000
 XYZ=    2.8272   -2.6543  -11.7116 Q=    0.4100 A=    0.0000 R=    0.0000 C=    0.0000
 XYZ=   -1.0013    7.4015   -9.7983 Q=   -0.8200 A=    0.0000 R=    0.0000 C=    0.0000
 XYZ=   -0.7188    8.2846   -9.4238 Q=    0.4100 A=    0.0000 R=    0.0000 C=    0.0000
 XYZ=   -0.4361    6.6764   -9.4048 Q=    0.4100 A=    0.0000 R=    0.0000 C=    0.0000
 XYZ=   -6.3509    8.3470    0.0297 Q=   -0.8200 A=    0.0000 R=    0.0000 C=    0.0000
 XYZ=   -6.9169    9.0880   -0.3318 Q=    0.4100 A=    0.0000 R=    0.0000 C=    0.0000
 XYZ=   -6.6796    8.0893    0.9383 Q=    0.4100 A=    0.0000 R=    0.0000 C=    0.0000
 XYZ=   10.2947    0.4610   -3.3524 Q=   -0.8200 A=    0.0000 R=    0.0000 C=    0.0000
 XYZ=   10.3891    1.2183   -2.7063 Q=    0.4100 A=    0.0000 R=    0.0000 C=    0.0000
 XYZ=   10.5669   -0.3924   -2.9077 Q=    0.4100 A=    0.0000 R=    0.0000 C=    0.0000
 XYZ=    9.7974    3.2709    2.0025 Q=   -0.8200 A=    0.0000 R=    0.0000 C=    0.0000
 XYZ=    9.1070    3.5529    2.6688 Q=    0.4100 A=    0.0000 R=    0.0000 C=    0.0000
 XYZ=   10.7087    3.4743    2.3606 Q=    0.4100 A=    0.0000 R=    0.0000 C=    0.0000
 XYZ=    0.6595   -4.9831    9.9739 Q=   -0.8200 A=    0.0000 R=    0.0000 C=    0.0000
 XYZ=    1.2831   -5.0241    9.1932 Q=    0.4100 A=    0.0000 R=    0.0000 C=    0.0000
 XYZ=    0.9035   -5.6944   10.6331 Q=    0.4100 A=    0.0000 R=    0.0000 C=    0.0000
 XYZ=   -4.4140    9.8812    0.0766 Q=   -0.8200 A=    0.0000 R=    0.0000 C=    0.0000
 XYZ=   -4.6781   10.6869   -0.4538 Q=    0.4100 A=    0.0000 R=    0.0000 C=    0.0000
 XYZ=   -5.0032    9.1119   -0.1702 Q=    0.4100 A=    0.0000 R=    0.0000 C=    0.0000
 XYZ=   -6.7069   -8.5877    2.2042 Q=   -0.8200 A=    0.0000 R=    0.0000 C=    0.0000
 XYZ=   -6.9004   -7.6106    2.2923 Q=    0.4100 A=    0.0000 R=    0.0000 C=    0.0000
 XYZ=   -6.4867   -8.9663    3.1032 Q=    0.4100 A=    0.0000 R=    0.0000 C=    0.0000
 XYZ=    8.2489   -2.4797   -7.9384 Q=   -0.8200 A=    0.0000 R=    0.0000 C=    0.0000
 XYZ=    7.7757   -1.7351   -7.4675 Q=    0.4100 A=    0.0000 R=    0.0000 C=    0.0000
 XYZ=    8.1077   -3.3337   -7.4376 Q=    0.4100 A=    0.0000 R=    0.0000 C=    0.0000
 XYZ=   -0.0952    8.7664    4.0051 Q=   -0.8200 A=    0.0000 R=    0.0000 C=    0.0000
 XYZ=   -1.0593    8.6031    3.7954 Q=    0.4100 A=    0.0000 R=    0.0000 C=    0.0000
 XYZ=    0.1417    8.3084    4.8620 Q=    0.4100 A=    0.0000 R=    0.0000 C=    0.0000
 XYZ=   -4.6482    2.9402  -10.6882 Q=   -0.8200 A=    0.0000 R=    0.0000 C=    0.0000
 XYZ=   -5.2465    2.1815  -10.4304 Q=    0.4100 A=    0.0000 R=    0.0000 C=    0.0000
 XYZ=   -3.6968    2.6903  -10.5080 Q=    0.4100 A=    0.0000 R=    0.0000 C=    0.0000
 XYZ=   -4.4322    5.0578   -9.1004 Q=   -0.8200 A=    0.0000 R=    0.0000 C=    0.0000
 XYZ=   -4.9148    5.7938   -9.5753 Q=    0.4100 A=    0.0000 R=    0.0000 C=    0.0000
 XYZ=   -4.7117    4.1763   -9.4808 Q=    0.4100 A=    0.0000 R=    0.0000 C=    0.0000
 XYZ=    7.9356    6.7747   -0.5146 Q=   -0.8200 A=    0.0000 R=    0.0000 C=    0.0000
 XYZ=    7.6913    7.5431   -1.1060 Q=    0.4100 A=    0.0000 R=    0.0000 C=    0.0000
 XYZ=    7.6459    6.9700    0.4224 Q=    0.4100 A=    0.0000 R=    0.0000 C=    0.0000
 XYZ=   -5.7103   -4.9199   -7.6873 Q=   -0.8200 A=    0.0000 R=    0.0000 C=    0.0000
 XYZ=   -4.8746   -4.4939   -8.0338 Q=    0.4100 A=    0.0000 R=    0.0000 C=    0.0000
 XYZ=   -5.4906   -5.8118   -7.2921 Q=    0.4100 A=    0.0000 R=    0.0000 C=    0.0000
 XYZ=  -10.1299    3.3501    2.6986 Q=   -0.8200 A=    0.0000 R=    0.0000 C=    0.0000
 XYZ=  -10.9866    3.6090    2.2523 Q=    0.4100 A=    0.0000 R=    0.0000 C=    0.0000
 XYZ=  -10.2180    2.4301    3.0806 Q=    0.4100 A=    0.0000 R=    0.0000 C=    0.0000
 XYZ=    7.1570    7.2879    1.6323 Q=   -0.8200 A=    0.0000 R=    0.0000 C=    0.0000
 XYZ=    7.3443    8.2284    1.9160 Q=    0.4100 A=    0.0000 R=    0.0000 C=    0.0000
 XYZ=    7.2130    6.6828    2.4265 Q=    0.4100 A=    0.0000 R=    0.0000 C=    0.0000
 XYZ=   -0.1103   -3.6503  -10.7413 Q=   -0.8200 A=    0.0000 R=    0.0000 C=    0.0000
 XYZ=    0.8370   -3.8539  -10.4939 Q=    0.4100 A=    0.0000 R=    0.0000 C=    0.0000
 XYZ=   -0.2910   -3.9800  -11.6680 Q=    0.4100 A=    0.0000 R=    0.0000 C=    0.0000
 XYZ=   -5.2450   -8.8110    0.5430 Q=   -0.8200 A=    0.0000 R=    0.0000 C=    0.0000
 XYZ=   -5.9570   -8.8367    1.2448 Q=    0.4100 A=    0.0000 R=    0.0000 C=    0.0000
 XYZ=   -5.4321   -9.5099   -0.1473 Q=    0.4100 A=    0.0000 R=    0.0000 C=    0.0000
 XYZ=    7.8391   -7.4625    3.1785 Q=   -0.8200 A=    0.0000 R=    0.0000 C=    0.0000
 XYZ=    8.3286   -6.5924    3.1206 Q=    0.4100 A=    0.0000 R=    0.0000 C=    0.0000
 XYZ=    6.8581   -7.3008    3.0710 Q=    0.4100 A=    0.0000 R=    0.0000 C=    0.0000
 XYZ=   -1.2401   -9.7285   -0.2390 Q=   -0.8200 A=    0.0000 R=    0.0000 C=    0.0000
 XYZ=   -0.7561  -10.2891    0.4329 Q=    0.4100 A=    0.0000 R=    0.0000 C=    0.0000
 XYZ=   -1.8538  -10.3074   -0.7759 Q=    0.4100 A=    0.0000 R=    0.0000 C=    0.0000
 XYZ=    6.4572   -8.3116   -0.7163 Q=   -0.8200 A=    0.0000 R=    0.0000 C=    0.0000
 XYZ=    7.0489   -8.5052    0.0663 Q=    0.4100 A=    0.0000 R=    0.0000 C=    0.0000
 XYZ=    6.8689   -7.5919   -1.2754 Q=    0.4100 A=    0.0000 R=    0.0000 C=    0.0000
 XYZ=   -7.7538   -2.0158   -7.7408 Q=   -0.8200 A=    0.0000 R=    0.0000 C=    0.0000
 XYZ=   -8.6671   -1.6562   -7.9324 Q=    0.4100 A=    0.0000 R=    0.0000 C=    0.0000
 XYZ=   -7.5105   -2.6941   -8.4341 Q=    0.4100 A=    0.0000 R=    0.0000 C=    0.0000
 XYZ=   -1.4743   10.1864   -3.4443 Q=   -0.8200 A=    0.0000 R=    0.0000 C=    0.0000
 XYZ=   -2.2502    9.9868   -2.8458 Q=    0.4100 A=    0.0000 R=    0.0000 C=    0.0000
 XYZ=   -1.4351   11.1696   -3.6224 Q=    0.4100 A=    0.0000 R=    0.0000 C=    0.0000
 XYZ=   10.4537   -2.1815    1.0154 Q=   -0.8200 A=    0.0000 R=    0.0000 C=    0.0000
 XYZ=   10.2469   -2.9786    1.5828 Q=    0.4100 A=    0.0000 R=    0.0000 C=    0.0000
 XYZ=   10.6600   -1.3988    1.6027 Q=    0.4100 A=    0.0000 R=    0.0000 C=    0.0000
 XYZ=    7.1430    2.8690    7.5765 Q=   -0.8200 A=    0.0000 R=    0.0000 C=    0.0000
 XYZ=    7.6608    2.5674    6.7759 Q=    0.4100 A=    0.0000 R=    0.0000 C=    0.0000
 XYZ=    7.7768    3.1648    8.2912 Q=    0.4100 A=    0.0000 R=    0.0000 C=    0.0000
 XYZ=   -3.1427   -7.5185   -7.2836 Q=   -0.8200 A=    0.0000 R=    0.0000 C=    0.0000
 XYZ=   -2.4467   -6.8045   -7.3612 Q=    0.4100 A=    0.0000 R=    0.0000 C=    0.0000
 XYZ=   -2.8883   -8.2958   -7.8590 Q=    0.4100 A=    0.0000 R=    0.0000 C=    0.0000
 XYZ=   -4.4914   -0.5219  -10.5283 Q=   -0.8200 A=    0.0000 R=    0.0000 C=    0.0000
 XYZ=   -5.1467    0.2276  -10.6226 Q=    0.4100 A=    0.0000 R=    0.0000 C=    0.0000
 XYZ=   -4.9318   -1.3835  -10.7810 Q=    0.4100 A=    0.0000 R=    0.0000 C=    0.0000
 XYZ=    2.3648    2.7707   11.0675 Q=   -0.8200 A=    0.0000 R=    0.0000 C=    0.0000
 XYZ=    3.3432    2.8437   10.8740 Q=    0.4100 A=    0.0000 R=    0.0000 C=    0.0000
 XYZ=    1.8914    2.4146   10.2618 Q=    0.4100 A=    0.0000 R=    0.0000 C=    0.0000
 XYZ=    6.5895    0.0338    9.4258 Q=   -0.8200 A=    0.0000 R=    0.0000 C=    0.0000
 XYZ=    6.0457    0.7524    8.9922 Q=    0.4100 A=    0.0000 R=    0.0000 C=    0.0000
 XYZ=    7.4763    0.4062    9.6996 Q=    0.4100 A=    0.0000 R=    0.0000 C=    0.0000
 XYZ=   -7.0492    7.8701    2.3015 Q=   -0.8200 A=    0.0000 R=    0.0000 C=    0.0000
 XYZ=   -6.4057    8.2016    2.9914 Q=    0.4100 A=    0.0000 R=    0.0000 C=    0.0000
 XYZ=   -7.6234    7.1539    2.6982 Q=    0.4100 A=    0.0000 R=    0.0000 C=    0.0000
 XYZ=   -6.2589    2.6930    9.0747 Q=   -0.8200 A=    0.0000 R=    0.0000 C=    0.0000
 XYZ=   -6.6178    2.2995    9.9211 Q=    0.4100 A=    0.0000 R=    0.0000 C=    0.0000
 XYZ=   -5.7906    3.5527    9.2792 Q=    0.4100 A=    0.0000 R=    0.0000 C=    0.0000
 XYZ=    5.4646    4.7975    7.7914 Q=   -0.8200 A=    0.0000 R=    0.0000 C=    0.0000
 XYZ=    5.9541    5.6352    7.5493 Q=    0.4100 A=    0.0000 R=    0.0000 C=    0.0000
 XYZ=    6.0720    4.0115    7.6762 Q=    0.4100 A=    0.0000 R=    0.0000 C=    0.0000
 XYZ=   -6.0515   -8.3816   -2.7730 Q=   -0.8200 A=    0.0000 R=    0.0000 C=    0.0000
 XYZ=   -6.5478   -7.6070   -2.3810 Q=    0.4100 A=    0.0000 R=    0.0000 C=    0.0000
 XYZ=   -6.7040   -9.0746   -3.0797 Q=    0.4100 A=    0.0000 R=    0.0000 C=    0.0000
 XYZ=   -6.0777    1.2085  -10.2611 Q=   -0.8200 A=    0.0000 R=    0.0000 C=    0.0000
 XYZ=   -6.4376    0.8592   -9.3960 Q=    0.4100 A=    0.0000 R=    0.0000 C=    0.0000
 XYZ=   -6.8061    1.2163  -10.9463 Q=    0.4100 A=    0.0000 R=    0.0000 C=    0.0000
 XYZ=  -12.1984   -0.5265   -1.2445 Q=   -0.8200 A=    0.0000 R=    0.0000 C=    0.0000
 XYZ=  -12.4583    0.4391   -1.2269 Q=    0.4100 A=    0.0000 R=    0.0000 C=    0.0000
 XYZ=  -11.2048   -0.6056   -1.1639 Q=    0.4100 A=    0.0000 R=    0.0000 C=    0.0000
 XYZ=   -2.8693  -10.2502    3.2928 Q=   -0.8200 A=    0.0000 R=    0.0000 C=    0.0000
 XYZ=   -2.0282   -9.8586    3.6658 Q=    0.4100 A=    0.0000 R=    0.0000 C=    0.0000
 XYZ=   -3.0921   -9.7995    2.4284 Q=    0.4100 A=    0.0000 R=    0.0000 C=    0.0000
 XYZ=   -3.9872   -8.2002    7.2792 Q=   -0.8200 A=    0.0000 R=    0.0000 C=    0.0000
 XYZ=   -4.4771   -7.9768    6.4365 Q=    0.4100 A=    0.0000 R=    0.0000 C=    0.0000
 XYZ=   -4.4774   -7.8159    8.0615 Q=    0.4100 A=    0.0000 R=    0.0000 C=    0.0000
 XYZ=    8.1685    4.6569   -7.0298 Q=   -0.8200 A=    0.0000 R=    0.0000 C=    0.0000
 XYZ=    9.1258    4.8379   -6.8042 Q=    0.4100 A=    0.0000 R=    0.0000 C=    0.0000
 XYZ=    8.0448    4.7051   -8.0210 Q=    0.4100 A=    0.0000 R=    0.0000 C=    0.0000
 XYZ=    1.2601   10.9863    0.9612 Q=   -0.8200 A=    0.0000 R=    0.0000 C=    0.0000
 XYZ=    2.2026   11.2714    0.7869 Q=    0.4100 A=    0.0000 R=    0.0000 C=    0.0000
 XYZ=    1.0316   10.2120    0.3711 Q=    0.4100 A=    0.0000 R=    0.0000 C=    0.0000
 XYZ=   -4.3832   10.2949   -4.7494 Q=   -0.8200 A=    0.0000 R=    0.0000 C=    0.0000
 XYZ=   -4.2798    9.4694   -4.1944 Q=    0.4100 A=    0.0000 R=    0.0000 C=    0.0000
 XYZ=   -3.5151   10.5048   -5.1994 Q=    0.4100 A=    0.0000 R=    0.0000 C=    0.0000
 XYZ=   -3.4222   -5.3583    9.3833 Q=   -0.8200 A=    0.0000 R=    0.0000 C=    0.0000
 XYZ=   -4.0768   -6.0468    9.0712 Q=    0.4100 A=    0.0000 R=    0.0000 C=    0.0000
 XYZ=   -3.2182   -5.5069   10.3510 Q=    0.4100 A=    0.0000 R=    0.0000 C=    0.0000
 XYZ=    2.0108   -7.6636   -7.3130 Q=   -0.8200 A=    0.0000 R=    0.0000 C=    0.0000
 XYZ=    1.3836   -7.9278   -6.5803 Q=    0.4100 A=    0.0000 R=    0.0000 C=    0.0000
 XYZ=    2.9534   -7.8180   -7.0168 Q=    0.4100 A=    0.0000 R=    0.0000 C=    0.0000
 XYZ=    7.9493   -4.7343   -6.5585 Q=   -0.8200 A=    0.0000 R=    0.0000 C=    0.0000
 XYZ=    8.7272   -5.1296   -6.0699 Q=    0.4100 A=    0.0000 R=    0.0000 C=    0.0000
 XYZ=    7.7339   -5.2995   -7.3550 Q=    0.4100 A=    0.0000 R=    0.0000 C=    0.0000
 XYZ=   -5.3709   -6.9990   -6.6932 Q=   -0.8200 A=    0.0000 R=    0.0000 C=    0.0000
 XYZ=   -4.4936   -7.3255   -7.0451 Q=    0.4100 A=    0.0000 R=    0.0000 C=    0.0000
 XYZ=   -5.4066   -7.1408   -5.7039 Q=    0.4100 A=    0.0000 R=    0.0000 C=    0.0000
 XYZ=    4.3962   -7.8596   -6.7943 Q=   -0.8200 A=    0.0000 R=    0.0000 C=    0.0000
 XYZ=    4.8692   -6.9875   -6.9198 Q=    0.4100 A=    0.0000 R=    0.0000 C=    0.0000
 XYZ=    4.6570   -8.4886   -7.5266 Q=    0.4100 A=    0.0000 R=    0.0000 C=    0.0000
 XYZ=   -8.8956   -6.7434    4.9736 Q=   -0.8200 A=    0.0000 R=    0.0000 C=    0.0000
 XYZ=   -8.5398   -6.5866    4.0523 Q=    0.4100 A=    0.0000 R=    0.0000 C=    0.0000
 XYZ=   -9.5719   -7.4797    4.9489 Q=    0.4100 A=    0.0000 R=    0.0000 C=    0.0000
 XYZ=   11.5342    0.4944    0.2962 Q=   -0.8200 A=    0.0000 R=    0.0000 C=    0.0000
 XYZ=   12.4595    0.1936    0.5270 Q=    0.4100 A=    0.0000 R=    0.0000 C=    0.0000
 XYZ=   11.0887    0.8592    1.1138 Q=    0.4100 A=    0.0000 R=    0.0000 C=    0.0000
 XYZ=    4.8586   -1.0489  -11.9370 Q=   -0.8200 A=    0.0000 R=    0.0000 C=    0.0000
 XYZ=    5.3053   -0.1645  -11.8017 Q=    0.4100 A=    0.0000 R=    0.0000 C=    0.0000
 XYZ=    4.7303   -1.4963  -11.0518 Q=    0.4100 A=    0.0000 R=    0.0000 C=    0.0000
 XYZ=  -12.1574   -1.9933    1.9567 Q=   -0.8200 A=    0.0000 R=    0.0000 C=    0.0000
 XYZ=  -11.3069   -1.4684    1.9219 Q=    0.4100 A=    0.0000 R=    0.0000 C=    0.0000
 XYZ=  -11.9795   -2.8896    2.3631 Q=    0.4100 A=    0.0000 R=    0.0000 C=    0.0000
 XYZ=   -2.2789   10.6735   -5.7733 Q=   -0.8200 A=    0.0000 R=    0.0000 C=    0.0000
 XYZ=   -1.9487   10.2350   -4.9374 Q=    0.4100 A=    0.0000 R=    0.0000 C=    0.0000
 XYZ=   -1.8292   11.5598   -5.8845 Q=    0.4100 A=    0.0000 R=    0.0000 C=    0.0000
 XYZ=   -0.3888   -3.1055   11.0515 Q=   -0.8200 A=    0.0000 R=    0.0000 C=    0.0000
 XYZ=    0.1675   -3.8636   10.7110 Q=    0.4100 A=    0.0000 R=    0.0000 C=    0.0000
 XYZ=   -1.1776   -3.4678   11.5479 Q=    0.4100 A=    0.0000 R=    0.0000 C=    0.0000
 XYZ=   -3.4444   10.4100    2.0646 Q=   -0.8200 A=    0.0000 R=    0.0000 C=    0.0000
 XYZ=   -4.2008   10.6935    2.6541 Q=    0.4100 A=    0.0000 R=    0.0000 C=    0.0000
 XYZ=   -3.7945   10.1971    1.1523 Q=    0.4100 A=    0.0000 R=    0.0000 C=    0.0000
 XYZ=   -5.3071    4.9815    9.6353 Q=   -0.8200 A=    0.0000 R=    0.0000 C=    0.0000
 XYZ=   -5.8758    5.7917    9.7779 Q=    0.4100 A=    0.0000 R=    0.0000 C=    0.0000
 XYZ=   -4.4735    5.2410    9.1477 Q=    0.4100 A=    0.0000 R=    0.0000 C=    0.0000
 XYZ=   -9.0680    1.1543   -8.4370 Q=   -0.8200 A=    0.0000 R=    0.0000 C=    0.0000
 XYZ=   -9.0714    1.3435   -9.4190 Q=    0.4100 A=    0.0000 R=    0.0000 C=    0.0000
 XYZ=   -8.8187    1.9846   -7.9385 Q=    0.4100 A=    0.0000 R=    0.0000 C=    0.0000
 XYZ=    4.7862   -1.3783   10.5068 Q=   -0.8200 A=    0.0000 R=    0.0000 C=    0.0000
 XYZ=    5.4992   -0.8545   10.0406 Q=    0.4100 A=    0.0000 R=    0.0000 C=    0.0000
 XYZ=    5.0359   -2.3466   10.5155 Q=    0.4100 A=    0.0000 R=    0.0000 C=    0.0000
 XYZ=    8.7073    7.9175   -4.5193 Q=   -0.8200 A=    0.0000 R=    0.0000 C=    0.0000
 XYZ=    8.1936    7.0674   -4.4032 Q=    0.4100 A=    0.0000 R=    0.0000 C=    0.0000
 XYZ=    9.3949    7.9926   -3.7970 Q=    0.4100 A=    0.0000 R=    0.0000 C=    0.0000
 XYZ=   -1.8426    6.2599  -11.5771 Q=   -0.8200 A=    0.0000 R=    0.0000 C=    0.0000
 XYZ=   -1.4894    6.8546  -10.8548 Q=    0.4100 A=    0.0000 R=    0.0000 C=    0.0000
 XYZ=   -1.7051    5.3037  -11.3185 Q=    0.4100 A=    0.0000 R=    0.0000 C=    0.0000
 XYZ=   -1.5882   -9.3894   -5.4377 Q=   -0.8200 A=    0.0000 R=    0.0000 C=    0.0000
 XYZ=   -2.1613   -8.5954   -5.2344 Q=    0.4100 A=    0.0000 R=    0.0000 C=    0.0000
 XYZ=   -1.7968   -9.7245   -6.3565 Q=    0.4100 A=    0.0000 R=    0.0000 C=    0.0000
 XYZ=    8.0578    6.4452    5.2431 Q=   -0.8200 A=    0.0000 R=    0.0000 C=    0.0000
 XYZ=    8.7506    5.7382    5.3846 Q=    0.4100 A=    0.0000 R=    0.0000 C=    0.0000
 XYZ=    7.5264    6.2319    4.4233 Q=    0.4100 A=    0.0000 R=    0.0000 C=    0.0000
 XYZ=   10.5586   -4.1818    2.3532 Q=   -0.8200 A=    0.0000 R=    0.0000 C=    0.0000
 XYZ=    9.7629   -4.7223    2.6265 Q=    0.4100 A=    0.0000 R=    0.0000 C=    0.0000
 XYZ=   11.1959   -4.7607    1.8445 Q=    0.4100 A=    0.0000 R=    0.0000 C=    0.0000
 XYZ=   10.3126    6.8265   -0.6851 Q=   -0.8200 A=    0.0000 R=    0.0000 C=    0.0000
 XYZ=   10.4180    7.1465   -1.6267 Q=    0.4100 A=    0.0000 R=    0.0000 C=    0.0000
 XYZ=    9.3432    6.6768   -0.4906 Q=    0.4100 A=    0.0000 R=    0.0000 C=    0.0000
 XYZ=   -9.2988   -6.8235    0.8404 Q=   -0.8200 A=    0.0000 R=    0.0000 C=    0.0000
 XYZ=   -9.2867   -7.0262   -0.1388 Q=    0.4100 A=    0.0000 R=    0.0000 C=    0.0000
 XYZ=  -10.1842   -6.4303    1.0884 Q=    0.4100 A=    0.0000 R=    0.0000 C=    0.0000
 XYZ=   -6.4699   -9.4368    4.4396 Q=   -0.8200 A=    0.0000 R=    0.0000 C=    0.0000
 XYZ=   -6.1628   -8.6182    4.9251 Q=    0.4100 A=    0.0000 R=    0.0000 C=    0.0000
 XYZ=   -5.7602  -10.1396    4.4891 Q=    0.4100 A=    0.0000 R=    0.0000 C=    0.0000
 XYZ=   -5.0957  -10.1545   -1.4967 Q=   -0.8200 A=    0.0000 R=    0.0000 C=    0.0000
 XYZ=   -5.8334  -10.8176   -1.6237 Q=    0.4100 A=    0.0000 R=    0.0000 C=    0.0000
 XYZ=   -5.3319   -9.3003   -1.9599 Q=    0.4100 A=    0.0000 R=    0.0000 C=    0.0000
 XYZ=   -7.4135   -6.3540    8.4782 Q=   -0.8200 A=    0.0000 R=    0.0000 C=    0.0000
 XYZ=   -7.1007   -6.2843    7.5309 Q=    0.4100 A=    0.0000 R=    0.0000 C=    0.0000
 XYZ=   -7.6655   -5.4463    8.8137 Q=    0.4100 A=    0.0000 R=    0.0000 C=    0.0000
 XYZ=  -12.0247    1.5338    4.8258 Q=   -0.8200 A=    0.0000 R=    0.0000 C=    0.0000
 XYZ=  -11.7287    2.3516    5.3193 Q=    0.4100 A=    0.0000 R=    0.0000 C=    0.0000
 XYZ=  -11.2779    1.2047    4.2479 Q=    0.4100 A=    0.0000 R=    0.0000 C=    0.0000
 XYZ=   -6.2377    9.3818   -5.7308 Q=   -0.8200 A=    0.0000 R=    0.0000 C=    0.0000
 XYZ=   -5.4416    9.7272   -5.2338 Q=    0.4100 A=    0.0000 R=    0.0000 C=    0.0000
 XYZ=   -6.6815    8.6653   -5.1926 Q=    0.4100 A=    0.0000 R=    0.0000 C=    0.0000
 XYZ=    0.6541   -1.6445  -13.1398 Q=   -0.8200 A=    0.0000 R=    0.0000 C=    0.0000
 XYZ=    0.2631   -0.8457  -12.6826 Q=    0.4100 A=    0.0000 R=    0.0000 C=    0.0000
 XYZ=    1.5923   -1.7838  -12.8229 Q=    0.4100 A=    0.0000 R=    0.0000 C=    0.0000
 XYZ=  -10.4261   -4.6336    5.0886 Q=   -0.8200 A=    0.0000 R=    0.0000 C=    0.0000
 XYZ=   -9.7005   -5.3084    5.2230 Q=    0.4100 A=    0.0000 R=    0.0000 C=    0.0000
 XYZ=  -11.0023   -4.5966    5.9051 Q=    0.4100 A=    0.0000 R=    0.0000 C=    0.0000
 XYZ=   11.6859    3.8827   -2.6617 Q=   -0.8200 A=    0.0000 R=    0.0000 C=    0.0000
 XYZ=   11.8682    4.4282   -1.8435 Q=    0.4100 A=    0.0000 R=    0.0000 C=    0.0000
 XYZ=   11.4536    2.9476   -2.3938 Q=    0.4100 A=    0.0000 R=    0.0000 C=    0.0000
 XYZ=   -6.4875    6.7327    7.1976 Q=   -0.8200 A=    0.0000 R=    0.0000 C=    0.0000
 XYZ=   -6.5996    7.6211    6.7523 Q=    0.4100 A=    0.0000 R=    0.0000 C=    0.0000
 XYZ=   -6.4564    6.8585    8.1892 Q=    0.4100 A=    0.0000 R=    0.0000 C=    0.0000
 XYZ=    7.0440   -3.2092  -10.0018 Q=   -0.8200 A=    0.0000 R=    0.0000 C=    0.0000
 XYZ=    7.5725   -3.1328  -10.8474 Q=    0.4100 A=    0.0000 R=    0.0000 C=    0.0000
 XYZ=    7.5042   -2.7005   -9.2741 Q=    0.4100 A=    0.0000 R=    0.0000 C=    0.0000
 XYZ=   10.9634   -3.3780   -6.1381 Q=   -0.8200 A=    0.0000 R=    0.0000 C=    0.0000
 XYZ=   10.4013   -2.6715   -5.7082 Q=    0.4100 A=    0.0000 R=    0.0000 C=    0.0000
 XYZ=   10.8930   -3.3006   -7.1327 Q=    0.4100 A=    0.0000 R=    0.0000 C=    0.0000
 XYZ=  -11.6291    4.5781   -4.9449 Q=   -0.8200 A=    0.0000 R=    0.0000 C=    0.0000
 XYZ=  -11.7563    3.8751   -5.6445 Q=    0.4100 A=    0.0000 R=    0.0000 C=    0.0000
 XYZ=  -10.7017    4.5171   -4.5758 Q=    0.4100 A=    0.0000 R=    0.0000 C=    0.0000
 XYZ=   -6.8994   -3.8633   -9.6331 Q=   -0.8200 A=    0.0000 R=    0.0000 C=    0.0000
 XYZ=   -6.3256   -4.3670   -8.9873 Q=    0.4100 A=    0.0000 R=    0.0000 C=    0.0000
 XYZ=   -7.5388   -4.4940  -10.0730 Q=    0.4100 A=    0.0000 R=    0.0000 C=    0.0000
 XYZ=    9.5035   -6.3243   -3.1189 Q=   -0.8200 A=    0.0000 R=    0.0000 C=    0.0000
 XYZ=    9.8506   -5.8843   -3.9471 Q=    0.4100 A=    0.0000 R=    0.0000 C=    0.0000
 XYZ=   10.1648   -7.0034   -2.8002 Q=    0.4100 A=    0.0000 R=    0.0000 C=    0.0000
 XYZ=   -9.4049   -6.6491   -1.4733 Q=   -0.8200 A=    0.0000 R=    0.0000 C=    0.0000
 XYZ=  -10.1653   -6.0480   -1.7192 Q=    0.4100 A=    0.0000 R=    0.0000 C=    0.0000
 XYZ=   -9.5768   -7.5672   -1.8306 Q=    0.4100 A=    0.0000 R=    0.0000 C=    0.0000
 XYZ=    4.6226    3.0378   10.2878 Q=   -0.8200 A=    0.0000 R=    0.0000 C=    0.0000
 XYZ=    5.1938    2.6469   11.0096 Q=    0.4100 A=    0.0000 R=    0.0000 C=    0.0000
 XYZ=    4.7506    4.0293   10.2617 Q=    0.4100 A=    0.0000 R=    0.0000 C=    0.0000
 XYZ=   11.9414    1.1055    3.6481 Q=   -0.8200 A=    0.0000 R=    0.0000 C=    0.0000
 XYZ=   12.4039    0.2198    3.6072 Q=    0.4100 A=    0.0000 R=    0.0000 C=    0.0000
 XYZ=   11.1569    1.1008    3.0280 Q=    0.4100 A=    0.0000 R=    0.0000 C=    0.0000
[...]
    39  O    0.000000   0.000000  -0.000003   0.000000  -0.000001  -0.025434
    40  H    0.000000   0.000000   0.000000   0.000000   0.000000  -0.000088
    41  H    0.000000   0.000000   0.000000   0.000000   0.000000   0.001020
    42  O    0.000000   0.000000  -0.000006   0.000000   0.000000   0.000000
    43  H    0.000000   0.000000   0.000000   0.000000   0.000000   0.000000
    44  H    0.000000   0.000000   0.000000   0.000000   0.000000   0.000000
    45  O    0.000000   0.000000   0.000000   0.000000   0.000000   0.000007
    46  H    0.000000   0.000000   0.000000   0.000000   0.000000   0.000004
    47  H    0.000000   0.000000   0.000000   0.000000   0.000000   0.000000
    48  O    0.000000   0.000000   0.000002   0.000000   0.000000   0.000000
    49  H    0.000000   0.000000   0.000000   0.000000   0.000000   0.000000
    50  H    0.000000   0.000000   0.000000   0.000000   0.000000   0.000000
              31         32         33         34         35         36
     1  C   -0.000841   0.000605   0.007486   0.001769  -0.000241  -0.000906
     2  H    0.000000   0.000000   0.000001   0.000000   0.000000  -0.000127
     3  H    0.000000   0.000000  -0.000073  -0.000001   0.000001   0.000001
     4  C    0.002822  -0.002734  -0.007750  -0.001988   0.000196   0.000496
     5  H   -0.000030   0.000000   0.000024  -0.000002  -0.000001   0.000000
     6  C   -0.001299   0.001507   0.000945   0.001207  -0.000105  -0.000029
     7  H   -0.000002  -0.000001   0.000000   0.000000   0.000000   0.000000
     8  O   -0.000004  -0.000001   0.000000   0.000000   0.000000   0.000059
     9  O    0.000000   0.000000   0.000000   0.000000   0.000000  -0.000005
    10  H    0.000000   0.000000   0.000000   0.000000   0.000000  -0.000006
    11  H    0.000000   0.000000   0.000000   0.000000   0.000000   0.000000
    12  O    0.000000   0.000000   0.000000   0.000000   0.000000  -0.123437
    13  H    0.000000   0.000000   0.000000   0.000000   0.000000   0.003827
    14  H    0.000000   0.000000   0.000000   0.000000   0.000000   0.003535
    15  O    0.000000   0.000000   0.000000   0.000000   0.000000   0.000002
    16  H    0.000000   0.000000   0.000000   0.000000   0.000000   0.000000
    17  H    0.000000   0.000000   0.000000   0.000000   0.000000   0.000000
    18  O    0.000000   0.000000   0.000000   0.000000   0.000000   0.000000
    19  H    0.000000   0.000000   0.000000   0.000000   0.000000   0.000000
    20  H    0.000000   0.000000   0.000000   0.000000   0.000000   0.000000
    21  O   -0.000322   0.002503  -0.000103   0.000366  -0.000002   0.000183
    22  H    0.000076  -0.000031   0.000014  -0.000013   0.000000  -0.000001
    23  H   -0.000873  -0.002888  -0.000064  -0.000024   0.000002   0.000000
    24  O    0.000000   0.000000   0.000000   0.000000   0.000000   0.000000
    25  H    0.000000   0.000000   0.000000   0.000000   0.000000   0.000000
    26  H    0.000000   0.000000   0.000000   0.000000   0.000000   0.000000
    27  O    0.000002   0.000033   0.000004   0.000001   0.000000  -0.000851
    28  H    0.000000   0.000000   0.000000   0.000000   0.000000   0.000476
    29  H   -0.000001  -0.000003   0.000003   0.000001   0.000000  -0.000044
    30  O    0.181092   0.209714  -0.000583   0.000760   0.000301   0.000001
    31  H    0.216317  -0.007469  -0.000123  -0.000024   0.000014   0.000000
    32  H   -0.007469   0.177743   0.000012   0.000002   0.000001   0.000000
    33  O   -0.000123   0.000012   8.712232   0.214729   0.224543   0.000000
    34  H   -0.000024   0.000002   0.214729   0.276507  -0.010522   0.000000
    35  H    0.000014   0.000001   0.224543  -0.010522   0.181710   0.000000
    36  O    0.000000   0.000000   0.000000   0.000000   0.000000   9.038391
    37  H    0.000000   0.000000   0.000000   0.000000   0.000000   0.210698
    38  H    0.000000   0.000000   0.000000   0.000000   0.000000   0.145567
    39  O    0.029472  -0.000314   0.000067  -0.000073  -0.000274   0.000000
    40  H   -0.001734  -0.000003  -0.000004   0.000000   0.000001   0.000000
    41  H    0.000125   0.000000  -0.000006   0.000001   0.000004   0.000000
    42  O    0.000000   0.000000   0.000000   0.000000   0.000000  -0.000016
    43  H    0.000000   0.000000   0.000000   0.000000   0.000000   0.000000
    44  H    0.000000   0.000000   0.000000   0.000000   0.000000   0.000003
    45  O    0.000001   0.000000  -0.064762   0.002011   0.000233   0.000000
    46  H    0.000000   0.000000   0.015902  -0.002443  -0.000103   0.000000
    47  H    0.000000   0.000000   0.001165  -0.000008   0.000010   0.000000
    48  O    0.000000   0.000000   0.000000   0.000000   0.000000  -0.000014
    49  H    0.000000   0.000000   0.000000   0.000000   0.000000   0.000003
    50  H    0.000000   0.000000   0.000000   0.000000   0.000000   0.000000
              37         38         39         40         41         42
     1  C   -0.000136  -0.000505   0.001326  -0.000042   0.000081  -0.004026
     2  H    0.000003  -0.000047   0.000000   0.000000   0.000000  -0.000037
     3  H    0.000000   0.000000   0.000000   0.000000   0.000000  -0.000020
     4  C    0.000157   0.000074   0.000676   0.000014  -0.000109   0.005535
     5  H    0.000000   0.000000  -0.000060   0.000000   0.000001   0.000000
     6  C    0.000004   0.000662  -0.001624   0.000021   0.000023  -0.000179
     7  H    0.000000   0.000000  -0.000001   0.000000   0.000000   0.000000
     8  O   -0.000001  -0.000158   0.000002   0.000000   0.000000   0.000024
     9  O    0.000000  -0.000007   0.000000   0.000000   0.000000   0.000000
    10  H    0.000000   0.000000   0.000000   0.000000   0.000000   0.000000
    11  H    0.000000   0.000000   0.000000   0.000000   0.000000   0.000000
    12  O    0.000808   0.007953   0.000000   0.000000   0.000000   0.000032
    13  H   -0.000375   0.001314   0.000000   0.000000   0.000000   0.000000
    14  H   -0.000029  -0.000729   0.000000   0.000000   0.000000   0.000000
    15  O    0.000000  -0.000002   0.000000   0.000000   0.000000   0.000000
    16  H    0.000000   0.000000   0.000000   0.000000   0.000000   0.000000
    17  H    0.000000   0.000000   0.000000   0.000000   0.000000   0.000000
    18  O    0.000000   0.000000   0.000000   0.000000   0.000000   0.000000
    19  H    0.000000   0.000000   0.000000   0.000000   0.000000   0.000000
    20  H    0.000000   0.000000   0.000000   0.000000   0.000000   0.000000
    21  O    0.000002   0.000074  -0.000555  -0.000015   0.000007   0.000000
    22  H    0.000000   0.000000   0.000004   0.000000   0.000000   0.000000
    23  H    0.000000   0.000000  -0.000004   0.000002  -0.000003   0.000000
    24  O    0.000000   0.000000   0.000001   0.000000   0.000000   0.000000
    25  H    0.000000   0.000000   0.000000   0.000000   0.000000   0.000000
    26  H    0.000000   0.000000   0.000000   0.000000   0.000000   0.000000
    27  O    0.000704   0.001361  -0.000003   0.000000   0.000000  -0.000006
    28  H   -0.000063   0.000073   0.000000   0.000000   0.000000   0.000000
    29  H    0.000002  -0.000021  -0.000001   0.000000   0.000000   0.000000
    30  O    0.000000   0.000000  -0.025434  -0.000088   0.001020   0.000000
    31  H    0.000000   0.000000   0.029472  -0.001734   0.000125   0.000000
    32  H    0.000000   0.000000  -0.000314  -0.000003   0.000000   0.000000
    33  O    0.000000   0.000000   0.000067  -0.000004  -0.000006   0.000000
    34  H    0.000000   0.000000  -0.000073   0.000000   0.000001   0.000000
    35  H    0.000000   0.000000  -0.000274   0.000001   0.000004   0.000000
    36  O    0.210698   0.145567   0.000000   0.000000   0.000000  -0.000016
    37  H    0.210420  -0.001766   0.000000   0.000000   0.000000  -0.000001
    38  H   -0.001766   0.199642   0.000000   0.000000   0.000000  -0.000001
    39  O    0.000000   0.000000   8.755729   0.223312   0.212226   0.000000
    40  H    0.000000   0.000000   0.223312   0.174521  -0.005403   0.000000
    41  H    0.000000   0.000000   0.212226  -0.005403   0.192111   0.000000
    42  O   -0.000001  -0.000001   0.000000   0.000000   0.000000   8.712200
    43  H    0.000000   0.000000   0.000000   0.000000   0.000000   0.227410
    44  H    0.000000   0.000000   0.000000   0.000000   0.000000   0.222059
    45  O    0.000000   0.000000  -0.000045   0.000000   0.000002   0.000000
    46  H    0.000000   0.000000   0.000002   0.000000   0.000000   0.000000
    47  H    0.000000   0.000000   0.000000   0.000000   0.000000   0.000000
    48  O    0.000000   0.000005   0.000000   0.000000   0.000000   0.000000
    49  H    0.000000   0.000000   0.000000   0.000000   0.000000   0.000000
    50  H    0.000000   0.000000   0.000000   0.000000   0.000000   0.000000
              43         44         45         46         47         48
     1  C   -0.000008  -0.000153   0.000795  -0.000294  -0.000117  -0.000026
     2  H    0.000000  -0.000001   0.000000   0.000000   0.000000   0.000000
     3  H    0.000000   0.000000  -0.000011  -0.000001   0.000000   0.000000
     4  C   -0.000158   0.000064  -0.001030   0.000312   0.000128   0.000252
     5  H    0.000000   0.000000  -0.000008  -0.000001   0.000000   0.000000
     6  C   -0.000004   0.000044  -0.000773   0.000062   0.000017   0.000880
     7  H    0.000000   0.000000   0.000000   0.000000   0.000000  -0.000004
     8  O    0.000000  -0.000001   0.000000   0.000000   0.000000  -0.001116
     9  O    0.000000   0.000000   0.000000   0.000000   0.000000  -0.002376
    10  H    0.000000   0.000000   0.000000   0.000000   0.000000  -0.000571
    11  H    0.000000   0.000000   0.000000   0.000000   0.000000   0.002928
    12  O    0.000000  -0.000005   0.000000   0.000000   0.000000   0.000044
    13  H    0.000000   0.000000   0.000000   0.000000   0.000000   0.000000
    14  H    0.000000   0.000000   0.000000   0.000000   0.000000   0.000007
    15  O    0.000000   0.000000   0.000000   0.000000   0.000000  -0.178317
    16  H    0.000000   0.000000   0.000000   0.000000   0.000000   0.008818
    17  H    0.000000   0.000000   0.000000   0.000000   0.000000   0.004010
    18  O    0.000000   0.000000   0.000000   0.000000   0.000000   0.000258
    19  H    0.000000   0.000000   0.000000   0.000000   0.000000  -0.000015
    20  H    0.000000   0.000000   0.000000   0.000000   0.000000   0.000153
    21  O    0.000000   0.000000  -0.000001  -0.000001   0.000000   0.000000
    22  H    0.000000   0.000000   0.000000   0.000000   0.000000   0.000000
    23  H    0.000000   0.000000   0.000000   0.000000   0.000000   0.000000
    24  O    0.000000   0.000000   0.000000   0.000000   0.000000   0.000000
    25  H    0.000000   0.000000   0.000000   0.000000   0.000000   0.000000
    26  H    0.000000   0.000000   0.000000   0.000000   0.000000   0.000000
    27  O    0.000000   0.000000   0.000000   0.000000   0.000000   0.000002
    28  H    0.000000   0.000000   0.000000   0.000000   0.000000   0.000000
    29  H    0.000000   0.000000   0.000000   0.000000   0.000000   0.000000
    30  O    0.000000   0.000000   0.000007   0.000004   0.000000   0.000000
    31  H    0.000000   0.000000   0.000001   0.000000   0.000000   0.000000
    32  H    0.000000   0.000000   0.000000   0.000000   0.000000   0.000000
    33  O    0.000000   0.000000  -0.064762   0.015902   0.001165   0.000000
    34  H    0.000000   0.000000   0.002011  -0.002443  -0.000008   0.000000
    35  H    0.000000   0.000000   0.000233  -0.000103   0.000010   0.000000
    36  O    0.000000   0.000003   0.000000   0.000000   0.000000  -0.000014
    37  H    0.000000   0.000000   0.000000   0.000000   0.000000   0.000000
    38  H    0.000000   0.000000   0.000000   0.000000   0.000000   0.000005
    39  O    0.000000   0.000000  -0.000045   0.000002   0.000000   0.000000
    40  H    0.000000   0.000000   0.000000   0.000000   0.000000   0.000000
    41  H    0.000000   0.000000   0.000002   0.000000   0.000000   0.000000
    42  O    0.227410   0.222059   0.000000   0.000000   0.000000   0.000000
    43  H    0.176368  -0.011163   0.000000   0.000000   0.000000   0.000000
    44  H   -0.011163   0.231991   0.000000   0.000000   0.000000   0.000000
    45  O    0.000000   0.000000   8.840318   0.173281   0.230611   0.000000
    46  H    0.000000   0.000000   0.173281   0.239773  -0.008843   0.000000
    47  H    0.000000   0.000000   0.230611  -0.008843   0.194147   0.000000
    48  O    0.000000   0.000000   0.000000   0.000000   0.000000   9.071972
    49  H    0.000000   0.000000   0.000000   0.000000   0.000000   0.219254
    50  H    0.000000   0.000000   0.000000   0.000000   0.000000   0.138976
              49         50
     1  C    0.000001  -0.000003
     2  H    0.000000   0.000000
     3  H    0.000000   0.000000
     4  C   -0.000016   0.000048
     5  H    0.000000   0.000000
     6  C   -0.000027   0.000058
     7  H    0.000000   0.000000
     8  O    0.000024   0.000214
     9  O   -0.000175   0.005311
    10  H    0.000002  -0.000250
    11  H   -0.000060  -0.000035
    12  O    0.000001   0.000001
    13  H    0.000000   0.000000
    14  H   -0.000001  -0.000001
    15  O    0.004848   0.036356
    16  H   -0.000244   0.001224
    17  H    0.000008  -0.002523
    18  O   -0.000002   0.000055
    19  H    0.000000   0.000002
    20  H    0.000000  -0.000017
    21  O    0.000000   0.000000
    22  H    0.000000   0.000000
    23  H    0.000000   0.000000
    24  O    0.000000   0.000000
    25  H    0.000000   0.000000
    26  H    0.000000   0.000000
    27  O    0.000000   0.000000
    28  H    0.000000   0.000000
    29  H    0.000000   0.000000
    30  O    0.000000   0.000000
    31  H    0.000000   0.000000
    32  H    0.000000   0.000000
    33  O    0.000000   0.000000
    34  H    0.000000   0.000000
    35  H    0.000000   0.000000
    36  O    0.000003   0.000000
    37  H    0.000000   0.000000
    38  H    0.000000   0.000000
    39  O    0.000000   0.000000
    40  H    0.000000   0.000000
    41  H    0.000000   0.000000
    42  O    0.000000   0.000000
    43  H    0.000000   0.000000
    44  H    0.000000   0.000000
    45  O    0.000000   0.000000
    46  H    0.000000   0.000000
    47  H    0.000000   0.000000
    48  O    0.219254   0.138976
    49  H    0.193134  -0.006224
    50  H   -0.006224   0.214857
 Mulliken charges:
               1
     1  C   -0.375333
     2  H    0.266540
     3  H    0.232377
     4  C   -0.085870
     5  H    0.225005
     6  C    0.037422
     7  H    0.193146
     8  O   -0.482461
     9  O   -1.269186
    10  H    0.573747
    11  H    0.709381
    12  O   -1.131440
    13  H    0.637330
    14  H    0.524162
    15  O   -1.200759
    16  H    0.607578
    17  H    0.638633
    18  O   -1.248351
    19  H    0.620183
    20  H    0.619146
    21  O   -1.158887
    22  H    0.551532
    23  H    0.610454
    24  O   -1.186814
    25  H    0.577012
    26  H    0.598138
    27  O   -1.247414
    28  H    0.587882
    29  H    0.654939
    30  O   -1.186384
    31  H    0.582800
    32  H    0.621325
    33  O   -1.103658
    34  H    0.517747
    35  H    0.604235
    36  O   -1.277808
    37  H    0.579572
    38  H    0.646511
    39  O   -1.194428
    40  H    0.609419
    41  H    0.599921
    42  O   -1.162975
    43  H    0.607556
    44  H    0.557161
    45  O   -1.180629
    46  H    0.582350
    47  H    0.582890
    48  O   -1.265120
    49  H    0.589475
    50  H    0.611951
 Sum of Mulliken charges =   0.00000
 Mulliken charges with hydrogens summed into heavy atoms:
               1
     1  C    0.123583
     4  C    0.139135
     6  C    0.230568
     8  O   -0.482461
     9  O    0.013942
    12  O    0.030052
    15  O    0.045452
    18  O   -0.009023
    21  O    0.003099
    24  O   -0.011665
    27  O   -0.004593
    30  O    0.017741
    33  O    0.018324
    36  O   -0.051725
    39  O    0.014912
    42  O    0.001741
    45  O   -0.015389
    48  O   -0.063694
 Electronic spatial extent (au):  <R**2>=          14433.1997
 Charge=              0.0000 electrons
 Dipole moment (field-independent basis, Debye):
    X=             15.2133    Y=             -9.0382    Z=             -2.2679  Tot=             17.8403
 Quadrupole moment (field-independent basis, Debye-Ang):
   XX=           -122.4164   YY=           -129.5154   ZZ=           -128.7948
   XY=             47.9931   XZ=            -59.3637   YZ=             18.3283
 Traceless Quadrupole moment (field-independent basis, Debye-Ang):
   XX=              4.4925   YY=             -2.6066   ZZ=             -1.8859
   XY=             47.9931   XZ=            -59.3637   YZ=             18.3283
 Octapole moment (field-independent basis, Debye-Ang**2):
  XXX=            256.5817  YYY=            -78.3123  ZZZ=            -94.2400  XYY=            339.6819
  XXY=           -191.3305  XXZ=             80.9068  XZZ=             31.0801  YZZ=           -122.6419
  YYZ=            -20.8415  XYZ=             97.4090
 Hexadecapole moment (field-independent basis, Debye-Ang**3):
 XXXX=         -10047.5325 YYYY=          -6002.7083 ZZZZ=          -2313.4758 XXXY=           1182.2237
 XXXZ=          -1125.0212 YYYX=            350.3858 YYYZ=            117.7728 ZZZX=           -444.2204
 ZZZY=            -23.8859 XXYY=          -1549.4269 XXZZ=          -1638.3647 YYZZ=          -1505.2196
 XXYZ=            310.0552 YYXZ=           -517.1842 ZZXY=            489.6783
 N-N= 9.949895188816D+02 E-N=-5.954427159732D+03  KE= 1.248944868308D+03
 Leave Link  601 at Fri Sep 14 19:17:26 2018, MaxMem=    33554432 cpu:         6.9
 (Enter /usr/local/pacerepov1/gaussian/G09D01LINDA/g09/l9999.exe)

 Test job not archived.
 1\1\GINC-RICH133-B13-29-R\SP\RLC-wPBE TD-FC\6-31+G(d)\C3H32O15\ROOT\14
 -Sep-2018\0\\#p td=(nstates=15)/6-31+g(d) lc-wpbe charge\\Acroleina in
  Water\\0,1\C,0,0.485154,0.480443,-1.430142\H,0,1.461403,0.187773,-1.0
 55732\H,0,0.429244,0.878853,-2.437062\C,0,-0.605127,0.346563,-0.658432
 \H,0,-1.591686,0.632893,-1.012412\C,0,-0.508516,-0.199107,0.712798\H,0
 ,-1.458487,-0.272107,1.272438\O,0,0.544883,-0.561317,1.236519\O,0,-0.1
 69696,-1.473287,3.743549\H,0,0.230944,-0.844767,3.076859\H,0,0.310014,
 -1.383477,4.616398\O,0,3.064193,1.312753,1.277378\H,0,2.648724,2.13591
 3,0.890238\H,0,2.373404,0.593333,1.349928\O,0,1.256553,-3.401287,3.539
 879\H,0,0.609294,-2.640997,3.484419\H,0,0.754764,-4.258207,3.657849\O,
 0,-2.355526,-1.596787,4.692429\H,0,-2.249956,-2.461637,5.183289\H,0,-1
 .540307,-1.425997,4.139019\O,0,0.156684,3.869563,-0.086952\H,0,0.46166
 4,4.725543,-0.504452\H,0,-0.841446,3.865693,-0.025722\O,0,-4.477127,-2
 .109577,3.185949\H,0,-3.619046,-1.793537,3.590749\H,0,-4.663486,-3.044
 637,3.487648\O,0,2.360363,3.294913,0.329948\H,0,2.948374,3.799403,-0.3
 02312\H,0,1.404613,3.534973,0.159738\O,0,-2.277586,4.375423,-0.078882\
 H,0,-3.087376,3.842023,-0.323362\H,0,-2.330487,4.639103,0.884298\O,0,-
 2.337756,3.853343,-4.230752\H,0,-1.585297,3.705913,-3.588801\H,0,-3.14
 7197,4.160863,-3.730481\O,0,5.296213,1.105403,1.047478\H,0,5.588783,1.
 352733,0.123738\H,0,4.297554,1.122963,1.096678\O,0,-4.841136,3.351463,
 -0.563262\H,0,-5.274277,3.967313,0.094888\H,0,-5.417706,2.544983,-0.69
 4472\O,0,4.127153,-1.400097,-4.333151\H,0,3.724784,-1.109387,-5.201292
 \H,0,4.548473,-0.613777,-3.881222\O,0,-2.894336,1.810943,-5.567041\H,0
 ,-2.639046,2.539713,-4.931581\H,0,-2.710056,2.106473,-6.504471\O,0,2.8
 35934,-2.659927,4.950328\H,0,3.656744,-2.589917,4.383389\H,0,2.102324,
 -3.088757,4.423119\\Version=EM64L-G09RevD.01\State=1-A\HF=-1759.011569
 2\RMSD=8.455e-09\PG=C01 [X(C3H32O15)]\\@


 FIREWORKS ENDED
 AND SPECTATORS GONE AWAY....
 AH, HOW VAST AND DARK
                     SHIKI
 Job cpu time:       0 days  2 hours 43 minutes 29.5 seconds.
 File lengths (MBytes):  RWF=    792 Int=      0 D2E=      0 Chk=     96 Scr=      2
 Normal termination of Gaussian 09 at Fri Sep 14 19:17:35 2018.
