 Entering Gaussian System, Link 0=g09
 Input=Acroleina_water_15_33c.gjf
 Output=Acroleina_water_15_33c.log
 Initial command:
 /usr/local/pacerepov1/gaussian/G09D01LINDA/g09/l1.exe /nv/hp18/holiveira7/scratch/22411878/Gau-31014.inp -scrdir=/nv/hp18/holiveira7/scratch/22411878/
 Entering Link 1 = /usr/local/pacerepov1/gaussian/G09D01LINDA/g09/l1.exe PID=     31015.
  
 Copyright (c) 1988,1990,1992,1993,1995,1998,2003,2009,2013,
            Gaussian, Inc.  All Rights Reserved.
  
 This is part of the Gaussian(R) 09 program.  It is based on
 the Gaussian(R) 03 system (copyright 2003, Gaussian, Inc.),
 the Gaussian(R) 98 system (copyright 1998, Gaussian, Inc.),
 the Gaussian(R) 94 system (copyright 1995, Gaussian, Inc.),
 the Gaussian 92(TM) system (copyright 1992, Gaussian, Inc.),
 the Gaussian 90(TM) system (copyright 1990, Gaussian, Inc.),
 the Gaussian 88(TM) system (copyright 1988, Gaussian, Inc.),
 the Gaussian 86(TM) system (copyright 1986, Carnegie Mellon
 University), and the Gaussian 82(TM) system (copyright 1983,
 Carnegie Mellon University). Gaussian is a federally registered
 trademark of Gaussian, Inc.
  
 This software contains proprietary and confidential information,
 including trade secrets, belonging to Gaussian, Inc.
  
 This software is provided under written license and may be
 used, copied, transmitted, or stored only in accord with that
 written license.
  
 The following legend is applicable only to US Government
 contracts under FAR:
  
                    RESTRICTED RIGHTS LEGEND
  
 Use, reproduction and disclosure by the US Government is
 subject to restrictions as set forth in subparagraphs (a)
 and (c) of the Commercial Computer Software - Restricted
 Rights clause in FAR 52.227-19.
  
 Gaussian, Inc.
 340 Quinnipiac St., Bldg. 40, Wallingford CT 06492
  
  
 ---------------------------------------------------------------
 Warning -- This program may not be used in any manner that
 competes with the business of Gaussian, Inc. or will provide
 assistance to any competitor of Gaussian, Inc.  The licensee
 of this program is prohibited from giving any competitor of
 Gaussian, Inc. access to this program.  By using this program,
 the user acknowledges that Gaussian, Inc. is engaged in the
 business of creating and licensing software in the field of
 computational chemistry and represents and warrants to the
 licensee that it is not a competitor of Gaussian, Inc. and that
 it will not use this program in any manner prohibited above.
 ---------------------------------------------------------------
  

 Cite this work as:
 Gaussian 09, Revision D.01,
 M. J. Frisch, G. W. Trucks, H. B. Schlegel, G. E. Scuseria, 
 M. A. Robb, J. R. Cheeseman, G. Scalmani, V. Barone, B. Mennucci, 
 G. A. Petersson, H. Nakatsuji, M. Caricato, X. Li, H. P. Hratchian, 
 A. F. Izmaylov, J. Bloino, G. Zheng, J. L. Sonnenberg, M. Hada, 
 M. Ehara, K. Toyota, R. Fukuda, J. Hasegawa, M. Ishida, T. Nakajima, 
 Y. Honda, O. Kitao, H. Nakai, T. Vreven, J. A. Montgomery, Jr., 
 J. E. Peralta, F. Ogliaro, M. Bearpark, J. J. Heyd, E. Brothers, 
 K. N. Kudin, V. N. Staroverov, T. Keith, R. Kobayashi, J. Normand, 
 K. Raghavachari, A. Rendell, J. C. Burant, S. S. Iyengar, J. Tomasi, 
 M. Cossi, N. Rega, J. M. Millam, M. Klene, J. E. Knox, J. B. Cross, 
 V. Bakken, C. Adamo, J. Jaramillo, R. Gomperts, R. E. Stratmann, 
 O. Yazyev, A. J. Austin, R. Cammi, C. Pomelli, J. W. Ochterski, 
 R. L. Martin, K. Morokuma, V. G. Zakrzewski, G. A. Voth, 
 P. Salvador, J. J. Dannenberg, S. Dapprich, A. D. Daniels, 
 O. Farkas, J. B. Foresman, J. V. Ortiz, J. Cioslowski, 
 and D. J. Fox, Gaussian, Inc., Wallingford CT, 2013.
 
 ******************************************
 Gaussian 09:  EM64L-G09RevD.01 24-Apr-2013
                14-Sep-2018 
 ******************************************
 %chk=Acrolina_Din_33.chk
 %nprocshared=10
 Will use up to   10 processors via shared memory.
 -------------------------------------------
 #p td=(nstates=15)/6-31+g(d) lc-wpbe charge
 -------------------------------------------
 1/18=10,28=-2,38=1,125=101/1;
 2/12=2,17=6,18=5,40=1/2;
 3/5=1,6=6,7=11,11=9,16=1,25=1,30=1,74=-41/1,2,8,3;
 4//1;
 5/5=2,38=5/2;
 8/6=1,10=2,108=15/1;
 9/41=15,42=1,70=2/14;
 6/7=2,8=2,9=2,10=2/1;
 99/5=1,9=1/99;
 Leave Link    1 at Fri Sep 14 17:01:42 2018, MaxMem=           0 cpu:         4.0
 (Enter /usr/local/pacerepov1/gaussian/G09D01LINDA/g09/l101.exe)
 ------------------
 Acroleina in Water
 ------------------
 Symbolic Z-matrix:
 Charge =  0 Multiplicity = 1
 C                     0.48515   0.48044  -1.43014 
 H                     1.4614    0.18777  -1.05573 
 H                     0.42924   0.87885  -2.43706 
 C                    -0.60513   0.34656  -0.65843 
 H                    -1.59169   0.63289  -1.01241 
 C                    -0.50852  -0.19911   0.7128 
 H                    -1.45849  -0.27211   1.27244 
 O                     0.54488  -0.56132   1.23652 
 O                     0.74391  -1.60064   2.63306 
 H                     1.06381  -1.00721   1.89447 
 H                     1.26178  -1.4049    3.46586 
 O                     3.8512    0.94741   0.2886 
 H                     3.70791   1.91716   0.09072 
 H                     2.97019   0.51071   0.47061 
 O                    -1.33239  -2.88045   2.49137 
 H                    -1.3924   -3.12931   3.45808 
 H                    -0.45375  -2.43654   2.31542 
 O                    -1.36176   3.8613   -1.16687 
 H                    -2.23841   3.436    -1.39197 
 H                    -1.33365   4.06952  -0.18918 
 O                    -5.42144   1.85285   0.87272 
 H                    -4.68299   2.4833    1.11213 
 H                    -5.27081   1.4982   -0.05009 
 O                    -3.3098   -1.23437   3.91599 
 H                    -2.31951  -1.14245   4.02048 
 H                    -3.50879  -1.84423   3.14883 
 O                    -3.56646  -2.70679   2.08356 
 H                    -2.57222  -2.77221   2.16876 
 H                    -3.98391  -3.56414   2.38489 
 O                     1.87515  -4.0039    2.20135 
 H                     1.33252  -3.21042   1.92568 
 H                     1.29299  -4.65098   2.69366 
 O                    -3.52768   2.84212  -1.58159 
 H                    -3.8512    3.66278  -1.11055 
 H                    -4.22378   2.12671  -1.52084 
 O                    -1.41247   4.08232   1.15728 
 H                    -2.33801   3.79422   1.4032 
 H                    -0.79046   3.30261   1.2295 
 O                    -3.70117   3.38966   1.31885 
 H                    -4.21186   3.91212   0.63601 
 H                    -3.92646   3.72646   2.2331 
 O                     1.02076   4.00382  -0.74158 
 H                     1.56855   4.6048   -1.32363 
 H                     0.06634   4.03126  -1.03889 
 O                    -5.53051  -2.6816    0.67063 
 H                    -4.63229  -2.47332   1.05771 
 H                    -5.59784  -3.66365   0.4943 
 O                    -5.50123   0.91821  -1.50714 
 H                    -6.03244   0.08186  -1.37142 
 H                    -5.96778   1.50573  -2.16832 
 
 NAtoms=     50 NQM=       50 NQMF=       0 NMMI=      0 NMMIF=      0
                NMic=       0 NMicF=      0.
                    Isotopes and Nuclear Properties:
 (Nuclear quadrupole moments (NQMom) in fm**2, nuclear magnetic moments (NMagM)
  in nuclear magnetons)

  Atom         1           2           3           4           5           6           7           8           9          10
 IAtWgt=          12           1           1          12           1          12           1          16          16           1
 AtmWgt=  12.0000000   1.0078250   1.0078250  12.0000000   1.0078250  12.0000000   1.0078250  15.9949146  15.9949146   1.0078250
 NucSpn=           0           1           1           0           1           0           1           0           0           1
 AtZEff=   0.0000000   0.0000000   0.0000000   0.0000000   0.0000000   0.0000000   0.0000000   0.0000000   0.0000000   0.0000000
 NQMom=    0.0000000   0.0000000   0.0000000   0.0000000   0.0000000   0.0000000   0.0000000   0.0000000   0.0000000   0.0000000
 NMagM=    0.0000000   2.7928460   2.7928460   0.0000000   2.7928460   0.0000000   2.7928460   0.0000000   0.0000000   2.7928460
 AtZNuc=   6.0000000   1.0000000   1.0000000   6.0000000   1.0000000   6.0000000   1.0000000   8.0000000   8.0000000   1.0000000

  Atom        11          12          13          14          15          16          17          18          19          20
 IAtWgt=           1          16           1           1          16           1           1          16           1           1
 AtmWgt=   1.0078250  15.9949146   1.0078250   1.0078250  15.9949146   1.0078250   1.0078250  15.9949146   1.0078250   1.0078250
 NucSpn=           1           0           1           1           0           1           1           0           1           1
 AtZEff=   0.0000000   0.0000000   0.0000000   0.0000000   0.0000000   0.0000000   0.0000000   0.0000000   0.0000000   0.0000000
 NQMom=    0.0000000   0.0000000   0.0000000   0.0000000   0.0000000   0.0000000   0.0000000   0.0000000   0.0000000   0.0000000
 NMagM=    2.7928460   0.0000000   2.7928460   2.7928460   0.0000000   2.7928460   2.7928460   0.0000000   2.7928460   2.7928460
 AtZNuc=   1.0000000   8.0000000   1.0000000   1.0000000   8.0000000   1.0000000   1.0000000   8.0000000   1.0000000   1.0000000

  Atom        21          22          23          24          25          26          27          28          29          30
 IAtWgt=          16           1           1          16           1           1          16           1           1          16
 AtmWgt=  15.9949146   1.0078250   1.0078250  15.9949146   1.0078250   1.0078250  15.9949146   1.0078250   1.0078250  15.9949146
 NucSpn=           0           1           1           0           1           1           0           1           1           0
 AtZEff=   0.0000000   0.0000000   0.0000000   0.0000000   0.0000000   0.0000000   0.0000000   0.0000000   0.0000000   0.0000000
 NQMom=    0.0000000   0.0000000   0.0000000   0.0000000   0.0000000   0.0000000   0.0000000   0.0000000   0.0000000   0.0000000
 NMagM=    0.0000000   2.7928460   2.7928460   0.0000000   2.7928460   2.7928460   0.0000000   2.7928460   2.7928460   0.0000000
 AtZNuc=   8.0000000   1.0000000   1.0000000   8.0000000   1.0000000   1.0000000   8.0000000   1.0000000   1.0000000   8.0000000

  Atom        31          32          33          34          35          36          37          38          39          40
 IAtWgt=           1           1          16           1           1          16           1           1          16           1
 AtmWgt=   1.0078250   1.0078250  15.9949146   1.0078250   1.0078250  15.9949146   1.0078250   1.0078250  15.9949146   1.0078250
 NucSpn=           1           1           0           1           1           0           1           1           0           1
 AtZEff=   0.0000000   0.0000000   0.0000000   0.0000000   0.0000000   0.0000000   0.0000000   0.0000000   0.0000000   0.0000000
 NQMom=    0.0000000   0.0000000   0.0000000   0.0000000   0.0000000   0.0000000   0.0000000   0.0000000   0.0000000   0.0000000
 NMagM=    2.7928460   2.7928460   0.0000000   2.7928460   2.7928460   0.0000000   2.7928460   2.7928460   0.0000000   2.7928460
 AtZNuc=   1.0000000   1.0000000   8.0000000   1.0000000   1.0000000   8.0000000   1.0000000   1.0000000   8.0000000   1.0000000

  Atom        41          42          43          44          45          46          47          48          49          50
 IAtWgt=           1          16           1           1          16           1           1          16           1           1
 AtmWgt=   1.0078250  15.9949146   1.0078250   1.0078250  15.9949146   1.0078250   1.0078250  15.9949146   1.0078250   1.0078250
 NucSpn=           1           0           1           1           0           1           1           0           1           1
 AtZEff=   0.0000000   0.0000000   0.0000000   0.0000000   0.0000000   0.0000000   0.0000000   0.0000000   0.0000000   0.0000000
 NQMom=    0.0000000   0.0000000   0.0000000   0.0000000   0.0000000   0.0000000   0.0000000   0.0000000   0.0000000   0.0000000
 NMagM=    2.7928460   0.0000000   2.7928460   2.7928460   0.0000000   2.7928460   2.7928460   0.0000000   2.7928460   2.7928460
 AtZNuc=   1.0000000   8.0000000   1.0000000   1.0000000   8.0000000   1.0000000   1.0000000   8.0000000   1.0000000   1.0000000
 Background charge distribution read from input stream:
 Point Charges:
 XYZ=    3.3378    3.1909   -0.3176 Q=   -0.8200 A=    0.0000 R=    0.0000 C=    0.0000
 XYZ=    3.9542    3.5982   -0.9915 Q=    0.4100 A=    0.0000 R=    0.0000 C=    0.0000
 XYZ=    2.4081    3.5259   -0.4710 Q=    0.4100 A=    0.0000 R=    0.0000 C=    0.0000
 XYZ=   -6.3400    0.6443    2.5039 Q=   -0.8200 A=    0.0000 R=    0.0000 C=    0.0000
 XYZ=   -5.9239    1.1589    1.7542 Q=    0.4100 A=    0.0000 R=    0.0000 C=    0.0000
 XYZ=   -5.7010    0.5984    3.2717 Q=    0.4100 A=    0.0000 R=    0.0000 C=    0.0000
 XYZ=   -3.4668    3.8913   -3.8309 Q=   -0.8200 A=    0.0000 R=    0.0000 C=    0.0000
 XYZ=   -3.4342    3.4435   -2.9374 Q=    0.4100 A=    0.0000 R=    0.0000 C=    0.0000
 XYZ=   -4.0998    3.3984   -4.4279 Q=    0.4100 A=    0.0000 R=    0.0000 C=    0.0000
 XYZ=   -3.4301    0.8902   -5.2766 Q=   -0.8200 A=    0.0000 R=    0.0000 C=    0.0000
 XYZ=   -3.3593    0.1205   -4.6421 Q=    0.4100 A=    0.0000 R=    0.0000 C=    0.0000
 XYZ=   -2.5138    1.1756   -5.5580 Q=    0.4100 A=    0.0000 R=    0.0000 C=    0.0000
 XYZ=    1.9121   -1.4295    4.6271 Q=   -0.8200 A=    0.0000 R=    0.0000 C=    0.0000
 XYZ=    2.3879   -0.6916    5.1057 Q=    0.4100 A=    0.0000 R=    0.0000 C=    0.0000
 XYZ=    2.5479   -1.8887    4.0067 Q=    0.4100 A=    0.0000 R=    0.0000 C=    0.0000
 XYZ=    3.4685   -2.6875    3.4225 Q=   -0.8200 A=    0.0000 R=    0.0000 C=    0.0000
 XYZ=    4.3515   -2.3967    3.0541 Q=    0.4100 A=    0.0000 R=    0.0000 C=    0.0000
 XYZ=    3.0325   -3.3204    2.7826 Q=    0.4100 A=    0.0000 R=    0.0000 C=    0.0000
 XYZ=    6.1488    1.0207    0.2046 Q=   -0.8200 A=    0.0000 R=    0.0000 C=    0.0000
 XYZ=    6.3117    1.2635   -0.7517 Q=    0.4100 A=    0.0000 R=    0.0000 C=    0.0000
 XYZ=    5.1647    1.0065    0.3819 Q=    0.4100 A=    0.0000 R=    0.0000 C=    0.0000
 XYZ=   -5.1054    0.5731    4.4937 Q=   -0.8200 A=    0.0000 R=    0.0000 C=    0.0000
 XYZ=   -4.2268    0.1120    4.3691 Q=    0.4100 A=    0.0000 R=    0.0000 C=    0.0000
 XYZ=   -5.7446   -0.0455    4.9507 Q=    0.4100 A=    0.0000 R=    0.0000 C=    0.0000
 XYZ=   -6.4016   -1.3001   -1.1921 Q=   -0.8200 A=    0.0000 R=    0.0000 C=    0.0000
 XYZ=   -6.0102   -1.7107   -2.0157 Q=    0.4100 A=    0.0000 R=    0.0000 C=    0.0000
 XYZ=   -6.1126   -1.8224   -0.3897 Q=    0.4100 A=    0.0000 R=    0.0000 C=    0.0000
 XYZ=   -0.6714    5.7852   -2.5209 Q=   -0.8200 A=    0.0000 R=    0.0000 C=    0.0000
 XYZ=   -0.9777    5.0497   -1.9166 Q=    0.4100 A=    0.0000 R=    0.0000 C=    0.0000
 XYZ=   -0.5074    6.6121   -1.9829 Q=    0.4100 A=    0.0000 R=    0.0000 C=    0.0000
 XYZ=   -1.3371    1.5834   -6.0593 Q=   -0.8200 A=    0.0000 R=    0.0000 C=    0.0000
 XYZ=   -1.0344    2.4674   -5.7029 Q=    0.4100 A=    0.0000 R=    0.0000 C=    0.0000
 XYZ=   -1.4370    1.6411   -7.0527 Q=    0.4100 A=    0.0000 R=    0.0000 C=    0.0000
 XYZ=    4.3312   -2.0780   -4.6355 Q=   -0.8200 A=    0.0000 R=    0.0000 C=    0.0000
 XYZ=    3.9522   -1.7173   -5.4877 Q=    0.4100 A=    0.0000 R=    0.0000 C=    0.0000
 XYZ=    4.7108   -1.3269   -4.0953 Q=    0.4100 A=    0.0000 R=    0.0000 C=    0.0000
 XYZ=    3.1961   -5.6776    0.9668 Q=   -0.8200 A=    0.0000 R=    0.0000 C=    0.0000
 XYZ=    2.7425   -4.8280    1.2359 Q=    0.4100 A=    0.0000 R=    0.0000 C=    0.0000
 XYZ=    3.4509   -6.1930    1.7849 Q=    0.4100 A=    0.0000 R=    0.0000 C=    0.0000
 XYZ=   -0.4662    3.6684   -5.3302 Q=   -0.8200 A=    0.0000 R=    0.0000 C=    0.0000
 XYZ=    0.3603    3.8333   -4.7919 Q=    0.4100 A=    0.0000 R=    0.0000 C=    0.0000
 XYZ=   -1.0892    4.4442   -5.2304 Q=    0.4100 A=    0.0000 R=    0.0000 C=    0.0000
 XYZ=   -7.2951   -1.5789    2.3000 Q=   -0.8200 A=    0.0000 R=    0.0000 C=    0.0000
 XYZ=   -6.7103   -2.2271    1.8123 Q=    0.4100 A=    0.0000 R=    0.0000 C=    0.0000
 XYZ=   -6.8666   -0.6754    2.2963 Q=    0.4100 A=    0.0000 R=    0.0000 C=    0.0000
 XYZ=   -4.5766    4.6664   -0.4935 Q=   -0.8200 A=    0.0000 R=    0.0000 C=    0.0000
 XYZ=   -4.4548    5.6544   -0.5892 Q=    0.4100 A=    0.0000 R=    0.0000 C=    0.0000
 XYZ=   -5.5192    4.4231   -0.7223 Q=    0.4100 A=    0.0000 R=    0.0000 C=    0.0000
 XYZ=   -4.2861   -2.3632    5.8755 Q=   -0.8200 A=    0.0000 R=    0.0000 C=    0.0000
 XYZ=   -3.8847   -1.9556    5.0552 Q=    0.4100 A=    0.0000 R=    0.0000 C=    0.0000
 XYZ=   -3.5578   -2.6171    6.5120 Q=    0.4100 A=    0.0000 R=    0.0000 C=    0.0000
 XYZ=   -5.1546    2.6617   -4.9552 Q=   -0.8200 A=    0.0000 R=    0.0000 C=    0.0000
 XYZ=   -5.2029    2.8668   -5.9327 Q=    0.4100 A=    0.0000 R=    0.0000 C=    0.0000
 XYZ=   -4.5137    1.9091   -4.8038 Q=    0.4100 A=    0.0000 R=    0.0000 C=    0.0000
 XYZ=   -1.3714   -3.7276    4.9193 Q=   -0.8200 A=    0.0000 R=    0.0000 C=    0.0000
 XYZ=   -1.8867   -3.4332    5.7242 Q=    0.4100 A=    0.0000 R=    0.0000 C=    0.0000
 XYZ=   -1.5024   -4.7092    4.7804 Q=    0.4100 A=    0.0000 R=    0.0000 C=    0.0000
 XYZ=   -7.2796    3.7459    1.9268 Q=   -0.8200 A=    0.0000 R=    0.0000 C=    0.0000
 XYZ=   -6.6623    3.0799    1.5079 Q=    0.4100 A=    0.0000 R=    0.0000 C=    0.0000
 XYZ=   -8.1073    3.2813    2.2415 Q=    0.4100 A=    0.0000 R=    0.0000 C=    0.0000
 XYZ=    0.7802   -3.2010    5.9255 Q=   -0.8200 A=    0.0000 R=    0.0000 C=    0.0000
 XYZ=    1.2611   -2.3789    5.6203 Q=    0.4100 A=    0.0000 R=    0.0000 C=    0.0000
 XYZ=   -0.0328   -3.3407    5.3602 Q=    0.4100 A=    0.0000 R=    0.0000 C=    0.0000
 XYZ=    6.5772    1.1448   -2.2250 Q=   -0.8200 A=    0.0000 R=    0.0000 C=    0.0000
 XYZ=    6.4765    2.0116   -2.7135 Q=    0.4100 A=    0.0000 R=    0.0000 C=    0.0000
 XYZ=    6.2434    0.3976   -2.7997 Q=    0.4100 A=    0.0000 R=    0.0000 C=    0.0000
 XYZ=   -4.5318    4.2174    3.3593 Q=   -0.8200 A=    0.0000 R=    0.0000 C=    0.0000
 XYZ=   -5.2344    4.8953    3.1425 Q=    0.4100 A=    0.0000 R=    0.0000 C=    0.0000
 XYZ=   -4.8947    3.5610    4.0206 Q=    0.4100 A=    0.0000 R=    0.0000 C=    0.0000
 XYZ=    4.4168    4.7954    1.1710 Q=   -0.8200 A=    0.0000 R=    0.0000 C=    0.0000
 XYZ=    3.9755    4.0358    0.6932 Q=    0.4100 A=    0.0000 R=    0.0000 C=    0.0000
 XYZ=    4.9088    5.3634    0.5112 Q=    0.4100 A=    0.0000 R=    0.0000 C=    0.0000
 XYZ=    2.6201    5.4199   -1.8323 Q=   -0.8200 A=    0.0000 R=    0.0000 C=    0.0000
 XYZ=    3.4188    4.8700   -2.0768 Q=    0.4100 A=    0.0000 R=    0.0000 C=    0.0000
 XYZ=    2.1372    5.6944   -2.6638 Q=    0.4100 A=    0.0000 R=    0.0000 C=    0.0000
 XYZ=   -2.0921    5.5847   -4.4804 Q=   -0.8200 A=    0.0000 R=    0.0000 C=    0.0000
 XYZ=   -1.5623    5.7573   -3.6501 Q=    0.4100 A=    0.0000 R=    0.0000 C=    0.0000
 XYZ=   -2.6962    4.8014   -4.3335 Q=    0.4100 A=    0.0000 R=    0.0000 C=    0.0000
 XYZ=    5.7814   -1.8163    2.8300 Q=   -0.8200 A=    0.0000 R=    0.0000 C=    0.0000
 XYZ=    6.4051   -1.2841    3.4026 Q=    0.4100 A=    0.0000 R=    0.0000 C=    0.0000
 XYZ=    6.2573   -2.1076    2.0002 Q=    0.4100 A=    0.0000 R=    0.0000 C=    0.0000
 XYZ=    4.6999    4.2382   -1.8693 Q=   -0.8200 A=    0.0000 R=    0.0000 C=    0.0000
 XYZ=    5.0932    4.9661   -1.3076 Q=    0.4100 A=    0.0000 R=    0.0000 C=    0.0000
 XYZ=    5.4329    3.7490   -2.3419 Q=    0.4100 A=    0.0000 R=    0.0000 C=    0.0000
 XYZ=   -0.4303    6.3836    0.9403 Q=   -0.8200 A=    0.0000 R=    0.0000 C=    0.0000
 XYZ=   -1.0693    7.0386    1.3438 Q=    0.4100 A=    0.0000 R=    0.0000 C=    0.0000
 XYZ=   -0.8104    5.4612    1.0100 Q=    0.4100 A=    0.0000 R=    0.0000 C=    0.0000
 XYZ=   -5.4204    2.8777    5.0461 Q=   -0.8200 A=    0.0000 R=    0.0000 C=    0.0000
 XYZ=   -5.2934    2.9922    6.0314 Q=    0.4100 A=    0.0000 R=    0.0000 C=    0.0000
 XYZ=   -5.4388    1.9030    4.8235 Q=    0.4100 A=    0.0000 R=    0.0000 C=    0.0000
 XYZ=   -6.5688    3.9022   -1.5546 Q=   -0.8200 A=    0.0000 R=    0.0000 C=    0.0000
 XYZ=   -6.5241    4.7482   -2.0858 Q=    0.4100 A=    0.0000 R=    0.0000 C=    0.0000
 XYZ=   -6.4443    3.1190   -2.1639 Q=    0.4100 A=    0.0000 R=    0.0000 C=    0.0000
 XYZ=    3.5790   -1.1241   -6.5823 Q=   -0.8200 A=    0.0000 R=    0.0000 C=    0.0000
 XYZ=    3.5942   -0.2287   -7.0274 Q=    0.4100 A=    0.0000 R=    0.0000 C=    0.0000
 XYZ=    2.6565   -1.5066   -6.6344 Q=    0.4100 A=    0.0000 R=    0.0000 C=    0.0000
 XYZ=    6.4401   -0.7869   -3.5050 Q=   -0.8200 A=    0.0000 R=    0.0000 C=    0.0000
 XYZ=    7.0841   -0.7154   -4.2667 Q=    0.4100 A=    0.0000 R=    0.0000 C=    0.0000
 XYZ=    6.6979   -1.5573   -2.9219 Q=    0.4100 A=    0.0000 R=    0.0000 C=    0.0000
 XYZ=   -6.5435    2.1027   -3.1264 Q=   -0.8200 A=    0.0000 R=    0.0000 C=    0.0000
 XYZ=   -6.0907    2.3394   -3.9860 Q=    0.4100 A=    0.0000 R=    0.0000 C=    0.0000
 XYZ=   -7.4625    1.7578   -3.3177 Q=    0.4100 A=    0.0000 R=    0.0000 C=    0.0000
 XYZ=    1.3786    6.0264   -3.6673 Q=   -0.8200 A=    0.0000 R=    0.0000 C=    0.0000
 XYZ=    0.4280    5.8824   -3.3923 Q=    0.4100 A=    0.0000 R=    0.0000 C=    0.0000
 XYZ=    1.5080    5.6988   -4.6032 Q=    0.4100 A=    0.0000 R=    0.0000 C=    0.0000
 XYZ=    4.3168   -3.5091    5.6815 Q=   -0.8200 A=    0.0000 R=    0.0000 C=    0.0000
 XYZ=    3.9812   -3.0987    4.8336 Q=    0.4100 A=    0.0000 R=    0.0000 C=    0.0000
 XYZ=    4.5140   -2.7879    6.3456 Q=    0.4100 A=    0.0000 R=    0.0000 C=    0.0000
 XYZ=    7.8882   -0.6468    0.8744 Q=   -0.8200 A=    0.0000 R=    0.0000 C=    0.0000
 XYZ=    7.1091   -0.0209    0.8393 Q=    0.4100 A=    0.0000 R=    0.0000 C=    0.0000
 XYZ=    7.5649   -1.5699    1.0829 Q=    0.4100 A=    0.0000 R=    0.0000 C=    0.0000
 XYZ=   -8.9362    0.5860    2.7504 Q=   -0.8200 A=    0.0000 R=    0.0000 C=    0.0000
 XYZ=   -7.9591    0.7761    2.6552 Q=    0.4100 A=    0.0000 R=    0.0000 C=    0.0000
 XYZ=   -9.1945   -0.1517    2.1267 Q=    0.4100 A=    0.0000 R=    0.0000 C=    0.0000
 XYZ=   -4.6085   -4.7075    2.7172 Q=   -0.8200 A=    0.0000 R=    0.0000 C=    0.0000
 XYZ=   -5.2135   -4.3873    3.4463 Q=    0.4100 A=    0.0000 R=    0.0000 C=    0.0000
 XYZ=   -4.0654   -5.4787    3.0494 Q=    0.4100 A=    0.0000 R=    0.0000 C=    0.0000
 XYZ=   -8.8872   -0.8811   -1.1160 Q=   -0.8200 A=    0.0000 R=    0.0000 C=    0.0000
 XYZ=   -9.0685    0.0947   -1.2385 Q=    0.4100 A=    0.0000 R=    0.0000 C=    0.0000
 XYZ=   -7.9194   -1.0645   -1.2884 Q=    0.4100 A=    0.0000 R=    0.0000 C=    0.0000
 XYZ=    5.8820   -3.9041   -4.4203 Q=   -0.8200 A=    0.0000 R=    0.0000 C=    0.0000
 XYZ=    6.6915   -3.6489   -3.8914 Q=    0.4100 A=    0.0000 R=    0.0000 C=    0.0000
 XYZ=    5.2742   -3.1142   -4.5015 Q=    0.4100 A=    0.0000 R=    0.0000 C=    0.0000
 XYZ=    0.5578   -5.7251    3.1992 Q=   -0.8200 A=    0.0000 R=    0.0000 C=    0.0000
 XYZ=    0.3225   -6.3154    2.4270 Q=    0.4100 A=    0.0000 R=    0.0000 C=    0.0000
 XYZ=    1.4062   -6.0477    3.6188 Q=    0.4100 A=    0.0000 R=    0.0000 C=    0.0000
 XYZ=   -4.2651    0.9781   -7.7238 Q=   -0.8200 A=    0.0000 R=    0.0000 C=    0.0000
 XYZ=   -4.2040    0.1341   -8.2567 Q=    0.4100 A=    0.0000 R=    0.0000 C=    0.0000
 XYZ=   -3.8605    0.8322   -6.8210 Q=    0.4100 A=    0.0000 R=    0.0000 C=    0.0000
 XYZ=    7.3220    2.2269    1.9251 Q=   -0.8200 A=    0.0000 R=    0.0000 C=    0.0000
 XYZ=    6.7168    2.9630    2.2283 Q=    0.4100 A=    0.0000 R=    0.0000 C=    0.0000
 XYZ=    6.8801    1.7140    1.1891 Q=    0.4100 A=    0.0000 R=    0.0000 C=    0.0000
 XYZ=   -5.6364   -5.2109    0.4220 Q=   -0.8200 A=    0.0000 R=    0.0000 C=    0.0000
 XYZ=   -5.0357   -5.7862   -0.1331 Q=    0.4100 A=    0.0000 R=    0.0000 C=    0.0000
 XYZ=   -5.1687   -4.9615    1.2700 Q=    0.4100 A=    0.0000 R=    0.0000 C=    0.0000
 XYZ=    3.4635   -0.1117    6.1199 Q=   -0.8200 A=    0.0000 R=    0.0000 C=    0.0000
 XYZ=    3.8383   -0.9534    6.5085 Q=    0.4100 A=    0.0000 R=    0.0000 C=    0.0000
 XYZ=    4.2120    0.4727    5.8063 Q=    0.4100 A=    0.0000 R=    0.0000 C=    0.0000
 XYZ=   -3.4936    5.6531    5.0884 Q=   -0.8200 A=    0.0000 R=    0.0000 C=    0.0000
 XYZ=   -4.3975    5.8944    5.4416 Q=    0.4100 A=    0.0000 R=    0.0000 C=    0.0000
 XYZ=   -3.5941    5.0248    4.3169 Q=    0.4100 A=    0.0000 R=    0.0000 C=    0.0000
 XYZ=    5.3606   -5.8677   -0.0929 Q=   -0.8200 A=    0.0000 R=    0.0000 C=    0.0000
 XYZ=    4.5064   -5.6300    0.3696 Q=    0.4100 A=    0.0000 R=    0.0000 C=    0.0000
 XYZ=    5.1624   -6.4550   -0.8777 Q=    0.4100 A=    0.0000 R=    0.0000 C=    0.0000
 XYZ=    5.9663    3.7981    2.8547 Q=   -0.8200 A=    0.0000 R=    0.0000 C=    0.0000
 XYZ=    5.6132    3.6832    3.7833 Q=    0.4100 A=    0.0000 R=    0.0000 C=    0.0000
 XYZ=    5.2153    4.0398    2.2402 Q=    0.4100 A=    0.0000 R=    0.0000 C=    0.0000
 XYZ=    2.8967    5.6179    2.9410 Q=   -0.8200 A=    0.0000 R=    0.0000 C=    0.0000
 XYZ=    2.3060    6.1989    2.3811 Q=    0.4100 A=    0.0000 R=    0.0000 C=    0.0000
 XYZ=    3.4874    5.0721    2.3467 Q=    0.4100 A=    0.0000 R=    0.0000 C=    0.0000
 XYZ=    6.3646    3.2512   -3.2959 Q=   -0.8200 A=    0.0000 R=    0.0000 C=    0.0000
 XYZ=    7.3254    3.4707   -3.1267 Q=    0.4100 A=    0.0000 R=    0.0000 C=    0.0000
 XYZ=    6.1883    3.2631   -4.2802 Q=    0.4100 A=    0.0000 R=    0.0000 C=    0.0000
 XYZ=   -9.1657   -1.4261    1.1810 Q=   -0.8200 A=    0.0000 R=    0.0000 C=    0.0000
 XYZ=   -8.9768   -1.1108    0.2510 Q=    0.4100 A=    0.0000 R=    0.0000 C=    0.0000
 XYZ=   -8.3058   -1.6598    1.6348 Q=    0.4100 A=    0.0000 R=    0.0000 C=    0.0000
 XYZ=    6.4460   -3.4893    4.2230 Q=   -0.8200 A=    0.0000 R=    0.0000 C=    0.0000
 XYZ=    6.1467   -2.7025    3.6831 Q=    0.4100 A=    0.0000 R=    0.0000 C=    0.0000
 XYZ=    5.7144   -3.7625    4.8476 Q=    0.4100 A=    0.0000 R=    0.0000 C=    0.0000
 XYZ=   -0.0873    4.7921   -7.3982 Q=   -0.8200 A=    0.0000 R=    0.0000 C=    0.0000
 XYZ=   -0.2780    4.1914   -6.6217 Q=    0.4100 A=    0.0000 R=    0.0000 C=    0.0000
 XYZ=   -0.8784    4.8077   -8.0097 Q=    0.4100 A=    0.0000 R=    0.0000 C=    0.0000
 XYZ=   -8.6242    3.2942   -0.5877 Q=   -0.8200 A=    0.0000 R=    0.0000 C=    0.0000
 XYZ=   -7.7384    3.5946   -0.9414 Q=    0.4100 A=    0.0000 R=    0.0000 C=    0.0000
 XYZ=   -8.6366    3.3931    0.4074 Q=    0.4100 A=    0.0000 R=    0.0000 C=    0.0000
 XYZ=   -6.2881   -1.2072    5.6371 Q=   -0.8200 A=    0.0000 R=    0.0000 C=    0.0000
 XYZ=   -6.9061   -1.7766    5.0949 Q=    0.4100 A=    0.0000 R=    0.0000 C=    0.0000
 XYZ=   -5.4361   -1.7040    5.8024 Q=    0.4100 A=    0.0000 R=    0.0000 C=    0.0000
 XYZ=    7.1327   -3.0001    1.0728 Q=   -0.8200 A=    0.0000 R=    0.0000 C=    0.0000
 XYZ=    7.0360   -3.3341    0.1352 Q=    0.4100 A=    0.0000 R=    0.0000 C=    0.0000
 XYZ=    7.4473   -3.7450    1.6612 Q=    0.4100 A=    0.0000 R=    0.0000 C=    0.0000
 XYZ=    6.8711   -0.5569    4.4269 Q=   -0.8200 A=    0.0000 R=    0.0000 C=    0.0000
 XYZ=    7.2389   -1.0991    5.1825 Q=    0.4100 A=    0.0000 R=    0.0000 C=    0.0000
 XYZ=    6.0850   -0.0285    4.7477 Q=    0.4100 A=    0.0000 R=    0.0000 C=    0.0000
 XYZ=   -1.3289   -6.1509    4.6701 Q=   -0.8200 A=    0.0000 R=    0.0000 C=    0.0000
 XYZ=   -0.4641   -6.0119    4.1877 Q=    0.4100 A=    0.0000 R=    0.0000 C=    0.0000
 XYZ=   -1.1792   -6.7497    5.4569 Q=    0.4100 A=    0.0000 R=    0.0000 C=    0.0000
 XYZ=    3.1633    7.1125   -0.2954 Q=   -0.8200 A=    0.0000 R=    0.0000 C=    0.0000
 XYZ=    2.6652    7.0644    0.5705 Q=    0.4100 A=    0.0000 R=    0.0000 C=    0.0000
 XYZ=    2.8392    6.3905   -0.9068 Q=    0.4100 A=    0.0000 R=    0.0000 C=    0.0000
 XYZ=   -6.5163    5.6512    2.9772 Q=   -0.8200 A=    0.0000 R=    0.0000 C=    0.0000
 XYZ=   -6.7826    5.4250    3.9142 Q=    0.4100 A=    0.0000 R=    0.0000 C=    0.0000
 XYZ=   -6.7795    4.9043    2.3665 Q=    0.4100 A=    0.0000 R=    0.0000 C=    0.0000
 XYZ=    8.4510    0.4006   -1.2520 Q=   -0.8200 A=    0.0000 R=    0.0000 C=    0.0000
 XYZ=    7.7197    0.7921   -1.8106 Q=    0.4100 A=    0.0000 R=    0.0000 C=    0.0000
 XYZ=    8.1078    0.2243   -0.3295 Q=    0.4100 A=    0.0000 R=    0.0000 C=    0.0000
 XYZ=    5.3986    0.9929    5.3344 Q=   -0.8200 A=    0.0000 R=    0.0000 C=    0.0000
 XYZ=    5.8184    0.9114    6.2384 Q=    0.4100 A=    0.0000 R=    0.0000 C=    0.0000
 XYZ=    5.1680    1.9500    5.1591 Q=    0.4100 A=    0.0000 R=    0.0000 C=    0.0000
 XYZ=    2.9467    4.2364    5.2168 Q=   -0.8200 A=    0.0000 R=    0.0000 C=    0.0000
 XYZ=    2.7920    4.6269    4.3092 Q=    0.4100 A=    0.0000 R=    0.0000 C=    0.0000
 XYZ=    2.0696    3.9814    5.6239 Q=    0.4100 A=    0.0000 R=    0.0000 C=    0.0000
 XYZ=    1.7490    5.1288   -5.7707 Q=   -0.8200 A=    0.0000 R=    0.0000 C=    0.0000
 XYZ=    1.1465    5.0997   -6.5683 Q=    0.4100 A=    0.0000 R=    0.0000 C=    0.0000
 XYZ=    2.6324    4.7233   -6.0053 Q=    0.4100 A=    0.0000 R=    0.0000 C=    0.0000
 XYZ=   -5.7657   -4.2380    4.8327 Q=   -0.8200 A=    0.0000 R=    0.0000 C=    0.0000
 XYZ=   -6.6297   -3.7787    4.6262 Q=    0.4100 A=    0.0000 R=    0.0000 C=    0.0000
 XYZ=   -5.1820   -3.6258    5.3662 Q=    0.4100 A=    0.0000 R=    0.0000 C=    0.0000
 XYZ=   -0.4924    7.5886   -1.1745 Q=   -0.8200 A=    0.0000 R=    0.0000 C=    0.0000
 XYZ=    0.2531    8.2073   -1.4227 Q=    0.4100 A=    0.0000 R=    0.0000 C=    0.0000
 XYZ=   -0.3028    7.1794   -0.2820 Q=    0.4100 A=    0.0000 R=    0.0000 C=    0.0000
 XYZ=   -0.3414   -2.4634    8.1325 Q=   -0.8200 A=    0.0000 R=    0.0000 C=    0.0000
 XYZ=    0.3435   -2.7003    7.4434 Q=    0.4100 A=    0.0000 R=    0.0000 C=    0.0000
 XYZ=   -0.1343   -2.9414    8.9861 Q=    0.4100 A=    0.0000 R=    0.0000 C=    0.0000
 XYZ=   -2.4953   -3.0952    7.2798 Q=   -0.8200 A=    0.0000 R=    0.0000 C=    0.0000
 XYZ=   -1.5960   -2.8980    7.6703 Q=    0.4100 A=    0.0000 R=    0.0000 C=    0.0000
 XYZ=   -2.8199   -3.9779    7.6196 Q=    0.4100 A=    0.0000 R=    0.0000 C=    0.0000
 XYZ=    4.1364    4.4233   -6.5230 Q=   -0.8200 A=    0.0000 R=    0.0000 C=    0.0000
 XYZ=    4.6642    3.7376   -6.0217 Q=    0.4100 A=    0.0000 R=    0.0000 C=    0.0000
 XYZ=    4.6104    5.3029   -6.4836 Q=    0.4100 A=    0.0000 R=    0.0000 C=    0.0000
 XYZ=    2.6516   -7.7112   -0.5461 Q=   -0.8200 A=    0.0000 R=    0.0000 C=    0.0000
 XYZ=    2.7722   -6.9883    0.1342 Q=    0.4100 A=    0.0000 R=    0.0000 C=    0.0000
 XYZ=    3.3740   -7.6450   -1.2345 Q=    0.4100 A=    0.0000 R=    0.0000 C=    0.0000
 XYZ=   -7.7083   -2.9690    4.4661 Q=   -0.8200 A=    0.0000 R=    0.0000 C=    0.0000
 XYZ=   -7.8058   -2.4733    3.6031 Q=    0.4100 A=    0.0000 R=    0.0000 C=    0.0000
 XYZ=   -8.5233   -3.5266    4.6241 Q=    0.4100 A=    0.0000 R=    0.0000 C=    0.0000
 XYZ=    1.6687    6.9385    1.4908 Q=   -0.8200 A=    0.0000 R=    0.0000 C=    0.0000
 XYZ=    1.5776    7.8022    1.9863 Q=    0.4100 A=    0.0000 R=    0.0000 C=    0.0000
 XYZ=    0.7916    6.6989    1.0745 Q=    0.4100 A=    0.0000 R=    0.0000 C=    0.0000
 XYZ=   -0.3032   -6.9384    1.4653 Q=   -0.8200 A=    0.0000 R=    0.0000 C=    0.0000
 XYZ=    0.3093   -7.5588    0.9753 Q=    0.4100 A=    0.0000 R=    0.0000 C=    0.0000
 XYZ=   -1.2487   -7.2423    1.3481 Q=    0.4100 A=    0.0000 R=    0.0000 C=    0.0000
 XYZ=    2.4614   -4.8198    6.5601 Q=   -0.8200 A=    0.0000 R=    0.0000 C=    0.0000
 XYZ=    3.3293   -4.4887    6.1899 Q=    0.4100 A=    0.0000 R=    0.0000 C=    0.0000
 XYZ=    1.7220   -4.2121    6.2703 Q=    0.4100 A=    0.0000 R=    0.0000 C=    0.0000
 XYZ=   -2.1293    2.0723   -8.3069 Q=   -0.8200 A=    0.0000 R=    0.0000 C=    0.0000
 XYZ=   -3.0285    1.7843   -7.9774 Q=    0.4100 A=    0.0000 R=    0.0000 C=    0.0000
 XYZ=   -2.0981    3.0705   -8.3606 Q=    0.4100 A=    0.0000 R=    0.0000 C=    0.0000
 XYZ=    2.9666    2.8947   -8.0105 Q=   -0.8200 A=    0.0000 R=    0.0000 C=    0.0000
 XYZ=    3.5370    3.5617   -7.5310 Q=    0.4100 A=    0.0000 R=    0.0000 C=    0.0000
 XYZ=    3.2708    1.9701   -7.7813 Q=    0.4100 A=    0.0000 R=    0.0000 C=    0.0000
 XYZ=   -7.0435    4.5763    5.3768 Q=   -0.8200 A=    0.0000 R=    0.0000 C=    0.0000
 XYZ=   -6.4188    3.8662    5.0517 Q=    0.4100 A=    0.0000 R=    0.0000 C=    0.0000
 XYZ=   -6.5216    5.2935    5.8385 Q=    0.4100 A=    0.0000 R=    0.0000 C=    0.0000
 XYZ=   -3.2846   -6.6987    3.4411 Q=   -0.8200 A=    0.0000 R=    0.0000 C=    0.0000
 XYZ=   -2.5003   -6.4853    4.0237 Q=    0.4100 A=    0.0000 R=    0.0000 C=    0.0000
 XYZ=   -2.9617   -6.9831    2.5384 Q=    0.4100 A=    0.0000 R=    0.0000 C=    0.0000
 XYZ=    5.0135    3.3325    4.9613 Q=   -0.8200 A=    0.0000 R=    0.0000 C=    0.0000
 XYZ=    5.7822    3.6883    5.4927 Q=    0.4100 A=    0.0000 R=    0.0000 C=    0.0000
 XYZ=    4.1748    3.8062    5.2302 Q=    0.4100 A=    0.0000 R=    0.0000 C=    0.0000
 XYZ=   -4.0494   -5.2614   -5.7968 Q=   -0.8200 A=    0.0000 R=    0.0000 C=    0.0000
 XYZ=   -4.2667   -4.8302   -6.6725 Q=    0.4100 A=    0.0000 R=    0.0000 C=    0.0000
 XYZ=   -3.6279   -4.5882   -5.1893 Q=    0.4100 A=    0.0000 R=    0.0000 C=    0.0000
 XYZ=    7.1340   -4.3669   -0.8206 Q=   -0.8200 A=    0.0000 R=    0.0000 C=    0.0000
 XYZ=    6.4522   -5.0285   -0.5083 Q=    0.4100 A=    0.0000 R=    0.0000 C=    0.0000
 XYZ=    8.0241   -4.8163   -0.8965 Q=    0.4100 A=    0.0000 R=    0.0000 C=    0.0000
 XYZ=    2.3923    1.4759    7.7393 Q=   -0.8200 A=    0.0000 R=    0.0000 C=    0.0000
 XYZ=    2.8454    0.8083    7.1485 Q=    0.4100 A=    0.0000 R=    0.0000 C=    0.0000
 XYZ=    1.5293    1.0954    8.0716 Q=    0.4100 A=    0.0000 R=    0.0000 C=    0.0000
 XYZ=   -2.6025   -7.2491    1.2018 Q=   -0.8200 A=    0.0000 R=    0.0000 C=    0.0000
 XYZ=   -2.3804   -8.1873    0.9365 Q=    0.4100 A=    0.0000 R=    0.0000 C=    0.0000
 XYZ=   -3.1170   -6.8077    0.4666 Q=    0.4100 A=    0.0000 R=    0.0000 C=    0.0000
 XYZ=   -9.2732    2.8683    2.7393 Q=   -0.8200 A=    0.0000 R=    0.0000 C=    0.0000
 XYZ=  -10.1784    3.0305    2.3464 Q=    0.4100 A=    0.0000 R=    0.0000 C=    0.0000
 XYZ=   -9.0256    1.9067    2.6201 Q=    0.4100 A=    0.0000 R=    0.0000 C=    0.0000
 XYZ=    3.8562    0.7214   -7.9591 Q=   -0.8200 A=    0.0000 R=    0.0000 C=    0.0000
 XYZ=    4.8485    0.7582   -7.8413 Q=    0.4100 A=    0.0000 R=    0.0000 C=    0.0000
 XYZ=    3.6418    0.4104   -8.8850 Q=    0.4100 A=    0.0000 R=    0.0000 C=    0.0000
 XYZ=    1.4459    3.6823    7.1248 Q=   -0.8200 A=    0.0000 R=    0.0000 C=    0.0000
 XYZ=    1.7106    4.1582    7.9636 Q=    0.4100 A=    0.0000 R=    0.0000 C=    0.0000
 XYZ=    1.8049    2.7491    7.1437 Q=    0.4100 A=    0.0000 R=    0.0000 C=    0.0000
 XYZ=   -0.7965    3.1587    7.8301 Q=   -0.8200 A=    0.0000 R=    0.0000 C=    0.0000
 XYZ=   -0.0238    3.5287    7.3143 Q=    0.4100 A=    0.0000 R=    0.0000 C=    0.0000
 XYZ=   -0.5095    2.3312    8.3126 Q=    0.4100 A=    0.0000 R=    0.0000 C=    0.0000
 XYZ=   -4.8305    6.8619   -1.0362 Q=   -0.8200 A=    0.0000 R=    0.0000 C=    0.0000
 XYZ=   -4.0618    7.3516   -1.4476 Q=    0.4100 A=    0.0000 R=    0.0000 C=    0.0000
 XYZ=   -5.4483    7.5168   -0.6010 Q=    0.4100 A=    0.0000 R=    0.0000 C=    0.0000
 XYZ=    6.0079    3.4621   -5.5591 Q=   -0.8200 A=    0.0000 R=    0.0000 C=    0.0000
 XYZ=    6.5933    4.2632   -5.6841 Q=    0.4100 A=    0.0000 R=    0.0000 C=    0.0000
 XYZ=    6.2847    2.7441   -6.1979 Q=    0.4100 A=    0.0000 R=    0.0000 C=    0.0000
 XYZ=   -9.5580    1.3094   -1.5549 Q=   -0.8200 A=    0.0000 R=    0.0000 C=    0.0000
 XYZ=  -10.5562    1.3636   -1.5270 Q=    0.4100 A=    0.0000 R=    0.0000 C=    0.0000
 XYZ=   -9.1681    2.1651   -1.2146 Q=    0.4100 A=    0.0000 R=    0.0000 C=    0.0000
 XYZ=    4.0329   -6.7143    2.8317 Q=   -0.8200 A=    0.0000 R=    0.0000 C=    0.0000
 XYZ=    3.3512   -6.4955    3.5298 Q=    0.4100 A=    0.0000 R=    0.0000 C=    0.0000
 XYZ=    4.1798   -7.7032    2.8077 Q=    0.4100 A=    0.0000 R=    0.0000 C=    0.0000
 XYZ=   -1.4660   -0.5004    8.8260 Q=   -0.8200 A=    0.0000 R=    0.0000 C=    0.0000
 XYZ=   -0.9484   -1.2836    8.4814 Q=    0.4100 A=    0.0000 R=    0.0000 C=    0.0000
 XYZ=   -2.4268   -0.7564    8.9322 Q=    0.4100 A=    0.0000 R=    0.0000 C=    0.0000
 XYZ=   -2.6334    7.9401   -4.1182 Q=   -0.8200 A=    0.0000 R=    0.0000 C=    0.0000
 XYZ=   -3.1563    7.9257   -3.2659 Q=    0.4100 A=    0.0000 R=    0.0000 C=    0.0000
 XYZ=   -2.6314    7.0259   -4.5235 Q=    0.4100 A=    0.0000 R=    0.0000 C=    0.0000
 XYZ=   -2.7336    8.0046   -1.6255 Q=   -0.8200 A=    0.0000 R=    0.0000 C=    0.0000
 XYZ=   -3.0419    8.8915   -1.2813 Q=    0.4100 A=    0.0000 R=    0.0000 C=    0.0000
 XYZ=   -1.7736    7.8677   -1.3811 Q=    0.4100 A=    0.0000 R=    0.0000 C=    0.0000
 XYZ=    2.3875   -6.4054    4.4015 Q=   -0.8200 A=    0.0000 R=    0.0000 C=    0.0000
 XYZ=    1.8331   -7.2115    4.6083 Q=    0.4100 A=    0.0000 R=    0.0000 C=    0.0000
 XYZ=    2.3679   -5.7786    5.1804 Q=    0.4100 A=    0.0000 R=    0.0000 C=    0.0000
 XYZ=    7.6851   -2.8449   -2.8368 Q=   -0.8200 A=    0.0000 R=    0.0000 C=    0.0000
 XYZ=    8.2601   -2.1972   -2.3369 Q=    0.4100 A=    0.0000 R=    0.0000 C=    0.0000
 XYZ=    7.3990   -3.5800   -2.2221 Q=    0.4100 A=    0.0000 R=    0.0000 C=    0.0000
 XYZ=    5.3812    6.0501   -0.6073 Q=   -0.8200 A=    0.0000 R=    0.0000 C=    0.0000
 XYZ=    4.5912    6.6632   -0.5989 Q=    0.4100 A=    0.0000 R=    0.0000 C=    0.0000
 XYZ=    6.2224    6.5907   -0.6242 Q=    0.4100 A=    0.0000 R=    0.0000 C=    0.0000
 XYZ=    5.7218   -6.0002   -3.5760 Q=   -0.8200 A=    0.0000 R=    0.0000 C=    0.0000
 XYZ=    5.7021   -5.0425   -3.8630 Q=    0.4100 A=    0.0000 R=    0.0000 C=    0.0000
 XYZ=    5.1379   -6.5415   -4.1811 Q=    0.4100 A=    0.0000 R=    0.0000 C=    0.0000
 XYZ=   -4.3564   -6.4205   -1.1209 Q=   -0.8200 A=    0.0000 R=    0.0000 C=    0.0000
 XYZ=   -4.5157   -6.1398   -2.0674 Q=    0.4100 A=    0.0000 R=    0.0000 C=    0.0000
 XYZ=   -4.4694   -7.4111   -1.0435 Q=    0.4100 A=    0.0000 R=    0.0000 C=    0.0000
 XYZ=   -2.3977    4.9646    7.3440 Q=   -0.8200 A=    0.0000 R=    0.0000 C=    0.0000
 XYZ=   -2.8000    5.1176    6.4414 Q=    0.4100 A=    0.0000 R=    0.0000 C=    0.0000
 XYZ=   -1.9114    4.0908    7.3484 Q=    0.4100 A=    0.0000 R=    0.0000 C=    0.0000
 XYZ=   -2.0008    7.4274    4.2849 Q=   -0.8200 A=    0.0000 R=    0.0000 C=    0.0000
 XYZ=   -2.5944    6.6432    4.4657 Q=    0.4100 A=    0.0000 R=    0.0000 C=    0.0000
 XYZ=   -2.5026    8.2736    4.4645 Q=    0.4100 A=    0.0000 R=    0.0000 C=    0.0000
 XYZ=    1.2230    8.3437   -3.6508 Q=   -0.8200 A=    0.0000 R=    0.0000 C=    0.0000
 XYZ=    0.6075    8.6121   -4.3918 Q=    0.4100 A=    0.0000 R=    0.0000 C=    0.0000
 XYZ=    1.3276    7.3492   -3.6481 Q=    0.4100 A=    0.0000 R=    0.0000 C=    0.0000
 XYZ=   -5.3139    3.1033   -7.4499 Q=   -0.8200 A=    0.0000 R=    0.0000 C=    0.0000
 XYZ=   -4.9574    3.6955   -8.1726 Q=    0.4100 A=    0.0000 R=    0.0000 C=    0.0000
 XYZ=   -5.0605    2.1549   -7.6409 Q=    0.4100 A=    0.0000 R=    0.0000 C=    0.0000
 XYZ=   -8.7693    1.5771   -3.7330 Q=   -0.8200 A=    0.0000 R=    0.0000 C=    0.0000
 XYZ=   -9.1647    1.2850   -2.8621 Q=    0.4100 A=    0.0000 R=    0.0000 C=    0.0000
 XYZ=   -9.4224    1.4040   -4.4702 Q=    0.4100 A=    0.0000 R=    0.0000 C=    0.0000
 XYZ=    5.4398   -2.6914   -8.1798 Q=   -0.8200 A=    0.0000 R=    0.0000 C=    0.0000
 XYZ=    5.5428   -3.5478   -7.6738 Q=    0.4100 A=    0.0000 R=    0.0000 C=    0.0000
 XYZ=    4.8318   -2.0777   -7.6761 Q=    0.4100 A=    0.0000 R=    0.0000 C=    0.0000
 XYZ=    8.6693    0.7298    3.4995 Q=   -0.8200 A=    0.0000 R=    0.0000 C=    0.0000
 XYZ=    8.1557    1.4045    2.9694 Q=    0.4100 A=    0.0000 R=    0.0000 C=    0.0000
 XYZ=    8.0358    0.1860    4.0499 Q=    0.4100 A=    0.0000 R=    0.0000 C=    0.0000
 XYZ=   -7.1202    0.2384    7.3847 Q=   -0.8200 A=    0.0000 R=    0.0000 C=    0.0000
 XYZ=   -6.8669   -0.3935    6.6521 Q=    0.4100 A=    0.0000 R=    0.0000 C=    0.0000
 XYZ=   -6.6801    1.1227    7.2289 Q=    0.4100 A=    0.0000 R=    0.0000 C=    0.0000
 XYZ=   -7.0305   -6.8227    1.3967 Q=   -0.8200 A=    0.0000 R=    0.0000 C=    0.0000
 XYZ=   -7.5747   -7.2825    0.6949 Q=    0.4100 A=    0.0000 R=    0.0000 C=    0.0000
 XYZ=   -6.4164   -6.1631    0.9632 Q=    0.4100 A=    0.0000 R=    0.0000 C=    0.0000
 XYZ=   -1.3735    8.1924    2.1069 Q=   -0.8200 A=    0.0000 R=    0.0000 C=    0.0000
 XYZ=   -1.5269    7.5947    2.8939 Q=    0.4100 A=    0.0000 R=    0.0000 C=    0.0000
 XYZ=   -2.1144    8.8614    2.0470 Q=    0.4100 A=    0.0000 R=    0.0000 C=    0.0000
 XYZ=    7.6634   -4.5949    2.5090 Q=   -0.8200 A=    0.0000 R=    0.0000 C=    0.0000
 XYZ=    7.3170   -4.2428    3.3785 Q=    0.4100 A=    0.0000 R=    0.0000 C=    0.0000
 XYZ=    7.1640   -5.4257    2.2632 Q=    0.4100 A=    0.0000 R=    0.0000 C=    0.0000
 XYZ=   -0.1248    1.3746    9.2740 Q=   -0.8200 A=    0.0000 R=    0.0000 C=    0.0000
 XYZ=   -0.6140    0.5208    9.0960 Q=    0.4100 A=    0.0000 R=    0.0000 C=    0.0000
 XYZ=   -0.0048    1.4905   10.2600 Q=    0.4100 A=    0.0000 R=    0.0000 C=    0.0000
 XYZ=    5.9924   -4.5568   -6.7898 Q=   -0.8200 A=    0.0000 R=    0.0000 C=    0.0000
 XYZ=    5.9242   -4.2161   -5.8521 Q=    0.4100 A=    0.0000 R=    0.0000 C=    0.0000
 XYZ=    6.9066   -4.9323   -6.9422 Q=    0.4100 A=    0.0000 R=    0.0000 C=    0.0000
 XYZ=    5.2367   -1.7038    7.1027 Q=   -0.8200 A=    0.0000 R=    0.0000 C=    0.0000
 XYZ=    5.5533   -1.6216    8.0477 Q=    0.4100 A=    0.0000 R=    0.0000 C=    0.0000
 XYZ=    6.0185   -1.8742    6.5029 Q=    0.4100 A=    0.0000 R=    0.0000 C=    0.0000
 XYZ=    1.1378    3.7041   -9.0811 Q=   -0.8200 A=    0.0000 R=    0.0000 C=    0.0000
 XYZ=    0.5391    4.0587   -8.3630 Q=    0.4100 A=    0.0000 R=    0.0000 C=    0.0000
 XYZ=    1.9901    3.3767   -8.6730 Q=    0.4100 A=    0.0000 R=    0.0000 C=    0.0000
 XYZ=    6.4364   -6.6602    1.8283 Q=   -0.8200 A=    0.0000 R=    0.0000 C=    0.0000
 XYZ=    6.3023   -6.5797    0.8406 Q=    0.4100 A=    0.0000 R=    0.0000 C=    0.0000
 XYZ=    5.5495   -6.7690    2.2773 Q=    0.4100 A=    0.0000 R=    0.0000 C=    0.0000
 XYZ=   -4.7402   -5.9242   -3.5440 Q=   -0.8200 A=    0.0000 R=    0.0000 C=    0.0000
 XYZ=   -5.7231   -5.9360   -3.3601 Q=    0.4100 A=    0.0000 R=    0.0000 C=    0.0000
 XYZ=   -4.5857   -5.7765   -4.5210 Q=    0.4100 A=    0.0000 R=    0.0000 C=    0.0000
 XYZ=   10.0632   -0.6813    1.5838 Q=   -0.8200 A=    0.0000 R=    0.0000 C=    0.0000
 XYZ=   10.0307   -0.8559    2.5679 Q=    0.4100 A=    0.0000 R=    0.0000 C=    0.0000
 XYZ=    9.1316   -0.6185    1.2255 Q=    0.4100 A=    0.0000 R=    0.0000 C=    0.0000
 XYZ=   -5.3251    2.1662    7.6583 Q=   -0.8200 A=    0.0000 R=    0.0000 C=    0.0000
 XYZ=   -5.3167    1.5094    8.4123 Q=    0.4100 A=    0.0000 R=    0.0000 C=    0.0000
 XYZ=   -5.0148    3.0575    7.9892 Q=    0.4100 A=    0.0000 R=    0.0000 C=    0.0000
 XYZ=    4.8450   -7.1459   -1.7966 Q=   -0.8200 A=    0.0000 R=    0.0000 C=    0.0000
 XYZ=    5.5964   -7.7521   -1.5360 Q=    0.4100 A=    0.0000 R=    0.0000 C=    0.0000
 XYZ=    5.1163   -6.6011   -2.5901 Q=    0.4100 A=    0.0000 R=    0.0000 C=    0.0000
 XYZ=    1.1244   -8.7663    0.4364 Q=   -0.8200 A=    0.0000 R=    0.0000 C=    0.0000
 XYZ=    1.7882   -8.2698   -0.1230 Q=    0.4100 A=    0.0000 R=    0.0000 C=    0.0000
 XYZ=    0.7863   -9.5583   -0.0721 Q=    0.4100 A=    0.0000 R=    0.0000 C=    0.0000
 XYZ=   -6.9737   -6.0305   -2.7693 Q=   -0.8200 A=    0.0000 R=    0.0000 C=    0.0000
 XYZ=   -7.1387   -5.5410   -1.9130 Q=    0.4100 A=    0.0000 R=    0.0000 C=    0.0000
 XYZ=   -7.4453   -6.9120   -2.7455 Q=    0.4100 A=    0.0000 R=    0.0000 C=    0.0000
 XYZ=    9.5557   -1.5813   -1.9392 Q=   -0.8200 A=    0.0000 R=    0.0000 C=    0.0000
 XYZ=    9.1305   -0.6911   -1.7753 Q=    0.4100 A=    0.0000 R=    0.0000 C=    0.0000
 XYZ=    9.7907   -2.0046   -1.0642 Q=    0.4100 A=    0.0000 R=    0.0000 C=    0.0000
 XYZ=    8.0209   -0.9917   -5.4760 Q=   -0.8200 A=    0.0000 R=    0.0000 C=    0.0000
 XYZ=    8.3950   -0.0644   -5.4896 Q=    0.4100 A=    0.0000 R=    0.0000 C=    0.0000
 XYZ=    8.7570   -1.6456   -5.3013 Q=    0.4100 A=    0.0000 R=    0.0000 C=    0.0000
 XYZ=   -6.3232    7.9068    2.5405 Q=   -0.8200 A=    0.0000 R=    0.0000 C=    0.0000
 XYZ=   -6.4861    6.9361    2.7175 Q=    0.4100 A=    0.0000 R=    0.0000 C=    0.0000
 XYZ=   -5.9875    8.3458    3.3739 Q=    0.4100 A=    0.0000 R=    0.0000 C=    0.0000
 XYZ=   -0.1388   -2.5329   -9.5378 Q=   -0.8200 A=    0.0000 R=    0.0000 C=    0.0000
 XYZ=   -0.1210   -3.3821  -10.0655 Q=    0.4100 A=    0.0000 R=    0.0000 C=    0.0000
 XYZ=   -0.5610   -2.7026   -8.6473 Q=    0.4100 A=    0.0000 R=    0.0000 C=    0.0000
 XYZ=   -0.1174    6.7257    5.6625 Q=   -0.8200 A=    0.0000 R=    0.0000 C=    0.0000
 XYZ=   -0.8287    6.9111    4.9844 Q=    0.4100 A=    0.0000 R=    0.0000 C=    0.0000
 XYZ=   -0.5430    6.5021    6.5394 Q=    0.4100 A=    0.0000 R=    0.0000 C=    0.0000
 XYZ=    6.1794    0.6081   -7.8907 Q=   -0.8200 A=    0.0000 R=    0.0000 C=    0.0000
 XYZ=    6.7307    1.3966   -7.6180 Q=    0.4100 A=    0.0000 R=    0.0000 C=    0.0000
 XYZ=    6.7823   -0.1403   -8.1673 Q=    0.4100 A=    0.0000 R=    0.0000 C=    0.0000
 XYZ=  -11.1576   -1.1117   -1.9987 Q=   -0.8200 A=    0.0000 R=    0.0000 C=    0.0000
 XYZ=  -11.5365   -0.2027   -1.8244 Q=    0.4100 A=    0.0000 R=    0.0000 C=    0.0000
 XYZ=  -10.2242   -1.1575   -1.6429 Q=    0.4100 A=    0.0000 R=    0.0000 C=    0.0000
 XYZ=    9.9250    2.1999   -1.5595 Q=   -0.8200 A=    0.0000 R=    0.0000 C=    0.0000
 XYZ=    9.3540    1.4025   -1.3641 Q=    0.4100 A=    0.0000 R=    0.0000 C=    0.0000
 XYZ=   10.2507    2.5951   -0.7006 Q=    0.4100 A=    0.0000 R=    0.0000 C=    0.0000
 XYZ=    9.2380    3.4958    2.7210 Q=   -0.8200 A=    0.0000 R=    0.0000 C=    0.0000
 XYZ=    9.6405    3.0077    3.4954 Q=    0.4100 A=    0.0000 R=    0.0000 C=    0.0000
 XYZ=    8.5320    2.9269    2.2990 Q=    0.4100 A=    0.0000 R=    0.0000 C=    0.0000
 XYZ=   -1.8298    1.6143  -10.5472 Q=   -0.8200 A=    0.0000 R=    0.0000 C=    0.0000
 XYZ=   -1.7937    1.8143   -9.5681 Q=    0.4100 A=    0.0000 R=    0.0000 C=    0.0000
 XYZ=   -1.4788    0.6925  -10.7122 Q=    0.4100 A=    0.0000 R=    0.0000 C=    0.0000
 XYZ=   -4.5436   -7.8690    4.9105 Q=   -0.8200 A=    0.0000 R=    0.0000 C=    0.0000
 XYZ=   -4.0655   -7.3532    4.1995 Q=    0.4100 A=    0.0000 R=    0.0000 C=    0.0000
 XYZ=   -5.3132   -7.3300    5.2528 Q=    0.4100 A=    0.0000 R=    0.0000 C=    0.0000
 XYZ=   -6.3591   -6.4676    5.3476 Q=   -0.8200 A=    0.0000 R=    0.0000 C=    0.0000
 XYZ=   -7.0248   -6.7637    4.6626 Q=    0.4100 A=    0.0000 R=    0.0000 C=    0.0000
 XYZ=   -6.1200   -5.5099    5.1878 Q=    0.4100 A=    0.0000 R=    0.0000 C=    0.0000
 XYZ=    8.0868    5.3499    2.0386 Q=   -0.8200 A=    0.0000 R=    0.0000 C=    0.0000
 XYZ=    7.1945    5.0038    2.3286 Q=    0.4100 A=    0.0000 R=    0.0000 C=    0.0000
 XYZ=    8.7817    4.6465    2.1880 Q=    0.4100 A=    0.0000 R=    0.0000 C=    0.0000
 XYZ=    1.4936    8.7923   -1.4658 Q=   -0.8200 A=    0.0000 R=    0.0000 C=    0.0000
 XYZ=    1.3052    8.6421   -2.4363 Q=    0.4100 A=    0.0000 R=    0.0000 C=    0.0000
 XYZ=    2.3523    8.3429   -1.2196 Q=    0.4100 A=    0.0000 R=    0.0000 C=    0.0000
 XYZ=  -11.1693   -2.5353    1.9017 Q=   -0.8200 A=    0.0000 R=    0.0000 C=    0.0000
 XYZ=  -10.3712   -1.9339    1.8629 Q=    0.4100 A=    0.0000 R=    0.0000 C=    0.0000
 XYZ=  -10.8862   -3.4456    2.2037 Q=    0.4100 A=    0.0000 R=    0.0000 C=    0.0000
 XYZ=   -1.9611    4.6962   -8.7060 Q=   -0.8200 A=    0.0000 R=    0.0000 C=    0.0000
 XYZ=   -1.5889    5.3169   -9.3961 Q=    0.4100 A=    0.0000 R=    0.0000 C=    0.0000
 XYZ=   -2.9512    4.6214   -8.8243 Q=    0.4100 A=    0.0000 R=    0.0000 C=    0.0000
 XYZ=    0.4310   -9.1934    2.9238 Q=   -0.8200 A=    0.0000 R=    0.0000 C=    0.0000
 XYZ=    0.9675   -9.2480    2.0817 Q=    0.4100 A=    0.0000 R=    0.0000 C=    0.0000
 XYZ=   -0.0621   -8.3238    2.9490 Q=    0.4100 A=    0.0000 R=    0.0000 C=    0.0000
 XYZ=   -8.6166    3.6401   -5.1406 Q=   -0.8200 A=    0.0000 R=    0.0000 C=    0.0000
 XYZ=   -8.0872    3.2887   -5.9127 Q=    0.4100 A=    0.0000 R=    0.0000 C=    0.0000
 XYZ=   -8.7115    2.9246   -4.4484 Q=    0.4100 A=    0.0000 R=    0.0000 C=    0.0000
 XYZ=    8.6951    3.7830   -2.6235 Q=   -0.8200 A=    0.0000 R=    0.0000 C=    0.0000
 XYZ=    9.1900    3.1174   -2.0648 Q=    0.4100 A=    0.0000 R=    0.0000 C=    0.0000
 XYZ=    8.9433    4.7085   -2.3373 Q=    0.4100 A=    0.0000 R=    0.0000 C=    0.0000
 XYZ=    9.2989   -2.7964   -4.6507 Q=   -0.8200 A=    0.0000 R=    0.0000 C=    0.0000
 XYZ=   10.1493   -2.4391   -4.2646 Q=    0.4100 A=    0.0000 R=    0.0000 C=    0.0000
 XYZ=    8.6403   -2.9562   -3.9154 Q=    0.4100 A=    0.0000 R=    0.0000 C=    0.0000
 XYZ=   -9.3938    4.3954    4.6711 Q=   -0.8200 A=    0.0000 R=    0.0000 C=    0.0000
 XYZ=   -9.4414    3.8016    3.8679 Q=    0.4100 A=    0.0000 R=    0.0000 C=    0.0000
 XYZ=   -8.4403    4.4952    4.9557 Q=    0.4100 A=    0.0000 R=    0.0000 C=    0.0000
 XYZ=   -4.7113   -1.0015   -8.8777 Q=   -0.8200 A=    0.0000 R=    0.0000 C=    0.0000
 XYZ=   -5.4413   -1.6811   -8.8048 Q=    0.4100 A=    0.0000 R=    0.0000 C=    0.0000
 XYZ=   -4.1907   -1.1605   -9.7166 Q=    0.4100 A=    0.0000 R=    0.0000 C=    0.0000
 XYZ=   -7.6010    3.2221   -7.3639 Q=   -0.8200 A=    0.0000 R=    0.0000 C=    0.0000
 XYZ=   -7.9229    3.8984   -8.0265 Q=    0.4100 A=    0.0000 R=    0.0000 C=    0.0000
 XYZ=   -6.6017    3.2395   -7.3287 Q=    0.4100 A=    0.0000 R=    0.0000 C=    0.0000
 XYZ=  -11.2731    0.9520    3.8824 Q=   -0.8200 A=    0.0000 R=    0.0000 C=    0.0000
 XYZ=  -11.1155    1.8168    4.3592 Q=    0.4100 A=    0.0000 R=    0.0000 C=    0.0000
 XYZ=  -10.4065    0.6078    3.5211 Q=    0.4100 A=    0.0000 R=    0.0000 C=    0.0000
 XYZ=   -0.5158    8.7162   -5.2284 Q=   -0.8200 A=    0.0000 R=    0.0000 C=    0.0000
 XYZ=   -1.3440    8.5639   -4.6891 Q=    0.4100 A=    0.0000 R=    0.0000 C=    0.0000
 XYZ=   -0.4457    8.0141   -5.9370 Q=    0.4100 A=    0.0000 R=    0.0000 C=    0.0000
 XYZ=    1.6696    7.8254    4.7147 Q=   -0.8200 A=    0.0000 R=    0.0000 C=    0.0000
 XYZ=    2.3466    7.2368    4.2728 Q=    0.4100 A=    0.0000 R=    0.0000 C=    0.0000
 XYZ=    0.9327    7.2627    5.0894 Q=    0.4100 A=    0.0000 R=    0.0000 C=    0.0000
 XYZ=   -4.2894    4.1891    8.5879 Q=   -0.8200 A=    0.0000 R=    0.0000 C=    0.0000
 XYZ=   -4.9428    4.9461    8.5787 Q=    0.4100 A=    0.0000 R=    0.0000 C=    0.0000
 XYZ=   -3.4222    4.4925    8.1929 Q=    0.4100 A=    0.0000 R=    0.0000 C=    0.0000
 XYZ=    1.6987   -5.3594    8.7083 Q=   -0.8200 A=    0.0000 R=    0.0000 C=    0.0000
 XYZ=    1.8702   -5.3115    7.7243 Q=    0.4100 A=    0.0000 R=    0.0000 C=    0.0000
 XYZ=    2.5628   -5.5043    9.1905 Q=    0.4100 A=    0.0000 R=    0.0000 C=    0.0000
 XYZ=    7.3723   -1.5359   -8.0729 Q=   -0.8200 A=    0.0000 R=    0.0000 C=    0.0000
 XYZ=    7.5782   -1.3713   -7.1083 Q=    0.4100 A=    0.0000 R=    0.0000 C=    0.0000
 XYZ=    6.5209   -2.0550   -8.1481 Q=    0.4100 A=    0.0000 R=    0.0000 C=    0.0000
 XYZ=    7.4801   -1.8353    6.3198 Q=   -0.8200 A=    0.0000 R=    0.0000 C=    0.0000
 XYZ=    7.8117   -1.1851    7.0033 Q=    0.4100 A=    0.0000 R=    0.0000 C=    0.0000
 XYZ=    8.0725   -2.6409    6.3111 Q=    0.4100 A=    0.0000 R=    0.0000 C=    0.0000
 XYZ=   -5.6188    6.3431    5.9969 Q=   -0.8200 A=    0.0000 R=    0.0000 C=    0.0000
 XYZ=   -5.7751    7.2759    5.6719 Q=    0.4100 A=    0.0000 R=    0.0000 C=    0.0000
 XYZ=   -5.5264    6.3482    6.9926 Q=    0.4100 A=    0.0000 R=    0.0000 C=    0.0000
 XYZ=   -1.1427    4.4504    9.8659 Q=   -0.8200 A=    0.0000 R=    0.0000 C=    0.0000
 XYZ=   -1.3418    5.3562    9.4918 Q=    0.4100 A=    0.0000 R=    0.0000 C=    0.0000
 XYZ=   -1.0341    3.7969    9.1168 Q=    0.4100 A=    0.0000 R=    0.0000 C=    0.0000
 XYZ=    3.5084    2.0672    9.6883 Q=   -0.8200 A=    0.0000 R=    0.0000 C=    0.0000
 XYZ=    4.4152    2.4549    9.5227 Q=    0.4100 A=    0.0000 R=    0.0000 C=    0.0000
 XYZ=    3.1035    1.7831    8.8192 Q=    0.4100 A=    0.0000 R=    0.0000 C=    0.0000
 XYZ=   -5.6608    8.7135    0.1157 Q=   -0.8200 A=    0.0000 R=    0.0000 C=    0.0000
 XYZ=   -6.3519    9.3163   -0.2833 Q=    0.4100 A=    0.0000 R=    0.0000 C=    0.0000
 XYZ=   -5.9787    8.3850    1.0051 Q=    0.4100 A=    0.0000 R=    0.0000 C=    0.0000
 XYZ=    6.3990    1.1911    7.4402 Q=   -0.8200 A=    0.0000 R=    0.0000 C=    0.0000
 XYZ=    7.1748    1.5994    6.9591 Q=    0.4100 A=    0.0000 R=    0.0000 C=    0.0000
 XYZ=    5.8854    1.9074    7.9126 Q=    0.4100 A=    0.0000 R=    0.0000 C=    0.0000
 XYZ=    0.9082   -8.0201    4.9772 Q=   -0.8200 A=    0.0000 R=    0.0000 C=    0.0000
 XYZ=    0.1269   -8.1210    5.5932 Q=    0.4100 A=    0.0000 R=    0.0000 C=    0.0000
 XYZ=    0.8310   -8.6803    4.2300 Q=    0.4100 A=    0.0000 R=    0.0000 C=    0.0000
 XYZ=    9.5975    3.0592   -4.6303 Q=   -0.8200 A=    0.0000 R=    0.0000 C=    0.0000
 XYZ=    9.1590    3.3077   -3.7666 Q=    0.4100 A=    0.0000 R=    0.0000 C=    0.0000
 XYZ=   10.5894    3.0348   -4.5055 Q=    0.4100 A=    0.0000 R=    0.0000 C=    0.0000
 XYZ=    9.6522   -5.1737    1.4799 Q=   -0.8200 A=    0.0000 R=    0.0000 C=    0.0000
 XYZ=    8.8185   -4.7860    1.8732 Q=    0.4100 A=    0.0000 R=    0.0000 C=    0.0000
 XYZ=    9.5261   -5.3073    0.4969 Q=    0.4100 A=    0.0000 R=    0.0000 C=    0.0000
 XYZ=    7.7939    2.2296   -7.1007 Q=   -0.8200 A=    0.0000 R=    0.0000 C=    0.0000
 XYZ=    8.1329    3.0518   -7.5579 Q=    0.4100 A=    0.0000 R=    0.0000 C=    0.0000
 XYZ=    8.5591    1.7434   -6.6787 Q=    0.4100 A=    0.0000 R=    0.0000 C=    0.0000
 XYZ=    1.7932   -1.6846  -10.5141 Q=   -0.8200 A=    0.0000 R=    0.0000 C=    0.0000
 XYZ=    2.4380   -2.4428  -10.6112 Q=    0.4100 A=    0.0000 R=    0.0000 C=    0.0000
 XYZ=    0.9657   -2.0076  -10.0549 Q=    0.4100 A=    0.0000 R=    0.0000 C=    0.0000
 XYZ=    0.8784    8.8660    2.6453 Q=   -0.8200 A=    0.0000 R=    0.0000 C=    0.0000
 XYZ=   -0.0911    8.7195    2.4485 Q=    0.4100 A=    0.0000 R=    0.0000 C=    0.0000
 XYZ=    1.0960    8.4901    3.5461 Q=    0.4100 A=    0.0000 R=    0.0000 C=    0.0000
 XYZ=    3.1737    0.0356  -10.1426 Q=   -0.8200 A=    0.0000 R=    0.0000 C=    0.0000
 XYZ=    2.7541    0.8572  -10.5285 Q=    0.4100 A=    0.0000 R=    0.0000 C=    0.0000
 XYZ=    2.5854   -0.7535  -10.3192 Q=    0.4100 A=    0.0000 R=    0.0000 C=    0.0000
 XYZ=   -1.5395   -0.8666  -10.6239 Q=   -0.8200 A=    0.0000 R=    0.0000 C=    0.0000
 XYZ=   -1.0124   -1.5543  -10.1245 Q=    0.4100 A=    0.0000 R=    0.0000 C=    0.0000
 XYZ=   -2.4768   -1.1918  -10.7495 Q=    0.4100 A=    0.0000 R=    0.0000 C=    0.0000
 XYZ=   -3.5964   -7.4581   -6.2411 Q=   -0.8200 A=    0.0000 R=    0.0000 C=    0.0000
 XYZ=   -3.7582   -6.4786   -6.1206 Q=    0.4100 A=    0.0000 R=    0.0000 C=    0.0000
 XYZ=   -3.8905   -7.9479   -5.4204 Q=    0.4100 A=    0.0000 R=    0.0000 C=    0.0000
 XYZ=   -5.9262    0.8851    9.5492 Q=   -0.8200 A=    0.0000 R=    0.0000 C=    0.0000
 XYZ=   -6.2053    0.3218    8.7715 Q=    0.4100 A=    0.0000 R=    0.0000 C=    0.0000
 XYZ=   -5.6800    0.2941   10.3175 Q=    0.4100 A=    0.0000 R=    0.0000 C=    0.0000
 XYZ=   -4.4626   -4.5262   -7.9639 Q=   -0.8200 A=    0.0000 R=    0.0000 C=    0.0000
 XYZ=   -4.3441   -5.2231   -8.6712 Q=    0.4100 A=    0.0000 R=    0.0000 C=    0.0000
 XYZ=   -5.0436   -3.7914   -8.3139 Q=    0.4100 A=    0.0000 R=    0.0000 C=    0.0000
 XYZ=   -2.9780   -5.2556    8.6444 Q=   -0.8200 A=    0.0000 R=    0.0000 C=    0.0000
 XYZ=   -3.5790   -6.0536    8.6881 Q=    0.4100 A=    0.0000 R=    0.0000 C=    0.0000
 XYZ=   -2.6194   -5.0581    9.5568 Q=    0.4100 A=    0.0000 R=    0.0000 C=    0.0000
 XYZ=   10.3948   -2.5860    0.2745 Q=   -0.8200 A=    0.0000 R=    0.0000 C=    0.0000
 XYZ=   10.3902   -3.3848    0.8760 Q=    0.4100 A=    0.0000 R=    0.0000 C=    0.0000
 XYZ=   10.2198   -1.7620    0.8134 Q=    0.4100 A=    0.0000 R=    0.0000 C=    0.0000
 XYZ=   -8.1061   -6.7916    3.5878 Q=   -0.8200 A=    0.0000 R=    0.0000 C=    0.0000
 XYZ=   -7.7148   -6.6891    2.6732 Q=    0.4100 A=    0.0000 R=    0.0000 C=    0.0000
 XYZ=   -8.6299   -7.6423    3.6327 Q=    0.4100 A=    0.0000 R=    0.0000 C=    0.0000
 XYZ=   -0.9495   -7.7527    6.4478 Q=   -0.8200 A=    0.0000 R=    0.0000 C=    0.0000
 XYZ=   -0.6201   -7.5212    7.3632 Q=    0.4100 A=    0.0000 R=    0.0000 C=    0.0000
 XYZ=   -1.8441   -8.1942    6.5173 Q=    0.4100 A=    0.0000 R=    0.0000 C=    0.0000
 XYZ=    7.9851   -6.5165   -2.7208 Q=   -0.8200 A=    0.0000 R=    0.0000 C=    0.0000
 XYZ=    7.0923   -6.5749   -3.1674 Q=    0.4100 A=    0.0000 R=    0.0000 C=    0.0000
 XYZ=    8.7073   -6.5828   -3.4094 Q=    0.4100 A=    0.0000 R=    0.0000 C=    0.0000
 XYZ=    9.9983    2.1587    4.4974 Q=   -0.8200 A=    0.0000 R=    0.0000 C=    0.0000
 XYZ=    9.4663    1.5002    3.9651 Q=    0.4100 A=    0.0000 R=    0.0000 C=    0.0000
 XYZ=   10.6345    1.6689    5.0936 Q=    0.4100 A=    0.0000 R=    0.0000 C=    0.0000
 XYZ=   -5.6350   -8.9348    1.5356 Q=   -0.8200 A=    0.0000 R=    0.0000 C=    0.0000
 XYZ=   -5.9210   -7.9781    1.5903 Q=    0.4100 A=    0.0000 R=    0.0000 C=    0.0000
 XYZ=   -5.2638   -9.2227    2.4185 Q=    0.4100 A=    0.0000 R=    0.0000 C=    0.0000
 XYZ=    0.1641   -3.8200    9.8738 Q=   -0.8200 A=    0.0000 R=    0.0000 C=    0.0000
 XYZ=    0.7646   -4.4321    9.3593 Q=    0.4100 A=    0.0000 R=    0.0000 C=    0.0000
 XYZ=   -0.5941   -4.3448   10.2609 Q=    0.4100 A=    0.0000 R=    0.0000 C=    0.0000
 XYZ=   -4.3147    4.2499   -9.2871 Q=   -0.8200 A=    0.0000 R=    0.0000 C=    0.0000
 XYZ=   -4.8018    5.0106   -9.7162 Q=    0.4100 A=    0.0000 R=    0.0000 C=    0.0000
 XYZ=   -4.2494    3.4892   -9.9329 Q=    0.4100 A=    0.0000 R=    0.0000 C=    0.0000
 XYZ=    9.3312    1.0424   -5.8011 Q=   -0.8200 A=    0.0000 R=    0.0000 C=    0.0000
 XYZ=    9.3985    1.9253   -5.3362 Q=    0.4100 A=    0.0000 R=    0.0000 C=    0.0000
 XYZ=   10.1485    0.5000   -5.6063 Q=    0.4100 A=    0.0000 R=    0.0000 C=    0.0000
 XYZ=   -4.3835   -8.4231   -4.2059 Q=   -0.8200 A=    0.0000 R=    0.0000 C=    0.0000
 XYZ=   -4.4603   -7.5397   -3.7436 Q=    0.4100 A=    0.0000 R=    0.0000 C=    0.0000
 XYZ=   -5.2791   -8.8676   -4.2261 Q=    0.4100 A=    0.0000 R=    0.0000 C=    0.0000
 XYZ=    2.1250    1.9224  -11.1303 Q=   -0.8200 A=    0.0000 R=    0.0000 C=    0.0000
 XYZ=    1.5656    2.3580  -10.4251 Q=    0.4100 A=    0.0000 R=    0.0000 C=    0.0000
 XYZ=    2.9006    2.5133  -11.3526 Q=    0.4100 A=    0.0000 R=    0.0000 C=    0.0000
 XYZ=   -3.9551   10.0454   -0.6675 Q=   -0.8200 A=    0.0000 R=    0.0000 C=    0.0000
 XYZ=   -4.4637   10.7710   -1.1311 Q=    0.4100 A=    0.0000 R=    0.0000 C=    0.0000
 XYZ=   -4.5958    9.3687   -0.3049 Q=    0.4100 A=    0.0000 R=    0.0000 C=    0.0000
 XYZ=    6.8477    4.0638    6.3839 Q=   -0.8200 A=    0.0000 R=    0.0000 C=    0.0000
 XYZ=    7.4714    4.8453    6.3653 Q=    0.4100 A=    0.0000 R=    0.0000 C=    0.0000
 XYZ=    7.3745    3.2191    6.4785 Q=    0.4100 A=    0.0000 R=    0.0000 C=    0.0000
 XYZ=    8.1248    6.7024    0.1424 Q=   -0.8200 A=    0.0000 R=    0.0000 C=    0.0000
 XYZ=    8.2991    7.6164    0.5087 Q=    0.4100 A=    0.0000 R=    0.0000 C=    0.0000
 XYZ=    8.0698    6.0465    0.8953 Q=    0.4100 A=    0.0000 R=    0.0000 C=    0.0000
 XYZ=   -1.9676    6.5775    9.0343 Q=   -0.8200 A=    0.0000 R=    0.0000 C=    0.0000
 XYZ=   -2.2595    6.0348    8.2468 Q=    0.4100 A=    0.0000 R=    0.0000 C=    0.0000
 XYZ=   -2.7696    6.9714    9.4834 Q=    0.4100 A=    0.0000 R=    0.0000 C=    0.0000
 XYZ=   -3.5331   10.0493   -5.1108 Q=   -0.8200 A=    0.0000 R=    0.0000 C=    0.0000
 XYZ=   -3.2261    9.1908   -4.6999 Q=    0.4100 A=    0.0000 R=    0.0000 C=    0.0000
 XYZ=   -2.9533   10.2693   -5.8953 Q=    0.4100 A=    0.0000 R=    0.0000 C=    0.0000
 XYZ=   -9.3749   -4.6859    4.3381 Q=   -0.8200 A=    0.0000 R=    0.0000 C=    0.0000
 XYZ=   -8.9189   -5.5506    4.1275 Q=    0.4100 A=    0.0000 R=    0.0000 C=    0.0000
 XYZ=   -9.7543   -4.7257    5.2625 Q=    0.4100 A=    0.0000 R=    0.0000 C=    0.0000
 XYZ=   -4.1775   -8.7578   -0.6800 Q=   -0.8200 A=    0.0000 R=    0.0000 C=    0.0000
 XYZ=   -4.8495   -8.9298    0.0404 Q=    0.4100 A=    0.0000 R=    0.0000 C=    0.0000
 XYZ=   -4.2865   -9.4365   -1.4064 Q=    0.4100 A=    0.0000 R=    0.0000 C=    0.0000
 XYZ=   -9.1064    1.2750    8.0463 Q=   -0.8200 A=    0.0000 R=    0.0000 C=    0.0000
 XYZ=   -8.8659    1.9612    8.7328 Q=    0.4100 A=    0.0000 R=    0.0000 C=    0.0000
 XYZ=   -8.3165    0.6871    7.8717 Q=    0.4100 A=    0.0000 R=    0.0000 C=    0.0000
 XYZ=   -2.0900   -9.5039    0.6688 Q=   -0.8200 A=    0.0000 R=    0.0000 C=    0.0000
 XYZ=   -2.8765   -9.3351    0.0747 Q=    0.4100 A=    0.0000 R=    0.0000 C=    0.0000
 XYZ=   -1.2921   -9.7289    0.1095 Q=    0.4100 A=    0.0000 R=    0.0000 C=    0.0000
 XYZ=    8.3172    4.7673   -5.7228 Q=   -0.8200 A=    0.0000 R=    0.0000 C=    0.0000
 XYZ=    8.9102    4.0957   -5.2787 Q=    0.4100 A=    0.0000 R=    0.0000 C=    0.0000
 XYZ=    8.3129    4.6070   -6.7099 Q=    0.4100 A=    0.0000 R=    0.0000 C=    0.0000
 XYZ=    9.1478   -5.5446   -0.8813 Q=   -0.8200 A=    0.0000 R=    0.0000 C=    0.0000
 XYZ=   10.1038   -5.3915   -1.1316 Q=    0.4100 A=    0.0000 R=    0.0000 C=    0.0000
 XYZ=    8.6805   -6.0212   -1.6260 Q=    0.4100 A=    0.0000 R=    0.0000 C=    0.0000
 XYZ=   -0.4198   -6.8502    8.6520 Q=   -0.8200 A=    0.0000 R=    0.0000 C=    0.0000
 XYZ=    0.4006   -6.2784    8.6439 Q=    0.4100 A=    0.0000 R=    0.0000 C=    0.0000
 XYZ=   -1.2283   -6.2716    8.7601 Q=    0.4100 A=    0.0000 R=    0.0000 C=    0.0000
 XYZ=   -4.1236    2.3909  -10.8992 Q=   -0.8200 A=    0.0000 R=    0.0000 C=    0.0000
 XYZ=   -4.7209    1.5951  -10.9996 Q=    0.4100 A=    0.0000 R=    0.0000 C=    0.0000
 XYZ=   -3.2064    2.0886  -10.6394 Q=    0.4100 A=    0.0000 R=    0.0000 C=    0.0000
 XYZ=   11.2688   -2.1547   -3.4213 Q=   -0.8200 A=    0.0000 R=    0.0000 C=    0.0000
 XYZ=   10.4922   -1.7979   -2.9019 Q=    0.4100 A=    0.0000 R=    0.0000 C=    0.0000
 XYZ=   11.9909   -2.4367   -2.7896 Q=    0.4100 A=    0.0000 R=    0.0000 C=    0.0000
 XYZ=    9.0978    6.0526   -1.9347 Q=   -0.8200 A=    0.0000 R=    0.0000 C=    0.0000
 XYZ=    8.8957    6.8262   -2.5353 Q=    0.4100 A=    0.0000 R=    0.0000 C=    0.0000
 XYZ=    8.6832    6.2094   -1.0383 Q=    0.4100 A=    0.0000 R=    0.0000 C=    0.0000
 XYZ=  -12.2345   -2.4492   -0.3516 Q=   -0.8200 A=    0.0000 R=    0.0000 C=    0.0000
 XYZ=  -11.7291   -1.8183   -0.9404 Q=    0.4100 A=    0.0000 R=    0.0000 C=    0.0000
 XYZ=  -11.8435   -2.4318    0.5686 Q=    0.4100 A=    0.0000 R=    0.0000 C=    0.0000
 XYZ=   -3.1831    3.3903   10.7143 Q=   -0.8200 A=    0.0000 R=    0.0000 C=    0.0000
 XYZ=   -2.2840    3.8275   10.6925 Q=    0.4100 A=    0.0000 R=    0.0000 C=    0.0000
 XYZ=   -3.6574    3.5604    9.8505 Q=    0.4100 A=    0.0000 R=    0.0000 C=    0.0000
 XYZ=    5.5368   -2.9950  -10.4432 Q=   -0.8200 A=    0.0000 R=    0.0000 C=    0.0000
 XYZ=    5.5953   -2.8557   -9.4547 Q=    0.4100 A=    0.0000 R=    0.0000 C=    0.0000
 XYZ=    6.3054   -3.5583  -10.7465 Q=    0.4100 A=    0.0000 R=    0.0000 C=    0.0000
 XYZ=    5.3835   -6.5858   -8.0816 Q=   -0.8200 A=    0.0000 R=    0.0000 C=    0.0000
 XYZ=    6.1425   -6.8809   -8.6619 Q=    0.4100 A=    0.0000 R=    0.0000 C=    0.0000
 XYZ=    5.6204   -5.7222   -7.6365 Q=    0.4100 A=    0.0000 R=    0.0000 C=    0.0000
 XYZ=    8.6178   -7.7441    1.9346 Q=   -0.8200 A=    0.0000 R=    0.0000 C=    0.0000
 XYZ=    9.1910   -6.9261    1.8857 Q=    0.4100 A=    0.0000 R=    0.0000 C=    0.0000
 XYZ=    7.6548   -7.4800    1.8800 Q=    0.4100 A=    0.0000 R=    0.0000 C=    0.0000
 XYZ=    0.2512    4.6764  -11.1223 Q=   -0.8200 A=    0.0000 R=    0.0000 C=    0.0000
 XYZ=   -0.3086    3.9623  -11.5427 Q=    0.4100 A=    0.0000 R=    0.0000 C=    0.0000
 XYZ=    0.5810    4.3608  -10.2326 Q=    0.4100 A=    0.0000 R=    0.0000 C=    0.0000
 XYZ=   -3.2488   -8.6317    6.7948 Q=   -0.8200 A=    0.0000 R=    0.0000 C=    0.0000
 XYZ=   -3.8140   -8.2145    6.0832 Q=    0.4100 A=    0.0000 R=    0.0000 C=    0.0000
 XYZ=   -3.5354   -8.2912    7.6904 Q=    0.4100 A=    0.0000 R=    0.0000 C=    0.0000
 XYZ=   10.7709    2.9162    0.4757 Q=   -0.8200 A=    0.0000 R=    0.0000 C=    0.0000
 XYZ=   10.1872    3.3155    1.1827 Q=    0.4100 A=    0.0000 R=    0.0000 C=    0.0000
 XYZ=   11.5261    3.5403    0.2753 Q=    0.4100 A=    0.0000 R=    0.0000 C=    0.0000
 XYZ=  -11.9187    1.2327   -1.6661 Q=   -0.8200 A=    0.0000 R=    0.0000 C=    0.0000
 XYZ=  -12.3480    1.4367   -2.5460 Q=    0.4100 A=    0.0000 R=    0.0000 C=    0.0000
 XYZ=  -12.6259    1.0232   -0.9908 Q=    0.4100 A=    0.0000 R=    0.0000 C=    0.0000
 XYZ=   -5.5357    8.5313    5.0113 Q=   -0.8200 A=    0.0000 R=    0.0000 C=    0.0000
 XYZ=   -6.0143    9.2586    5.5032 Q=    0.4100 A=    0.0000 R=    0.0000 C=    0.0000
 XYZ=   -4.6050    8.8293    4.7989 Q=    0.4100 A=    0.0000 R=    0.0000 C=    0.0000
 XYZ=   -3.4143    9.2504    4.3590 Q=   -0.8200 A=    0.0000 R=    0.0000 C=    0.0000
 XYZ=   -2.6529    9.7642    4.7547 Q=    0.4100 A=    0.0000 R=    0.0000 C=    0.0000
 XYZ=   -3.9173    9.8364    3.7236 Q=    0.4100 A=    0.0000 R=    0.0000 C=    0.0000
 XYZ=    2.2448    4.3121    9.5794 Q=   -0.8200 A=    0.0000 R=    0.0000 C=    0.0000
 XYZ=    1.7762    4.4075   10.4576 Q=    0.4100 A=    0.0000 R=    0.0000 C=    0.0000
 XYZ=    2.7566    3.4531    9.5663 Q=    0.4100 A=    0.0000 R=    0.0000 C=    0.0000
 XYZ=    1.9158   10.7783   -0.3982 Q=   -0.8200 A=    0.0000 R=    0.0000 C=    0.0000
 XYZ=    2.7343   11.3037   -0.6306 Q=    0.4100 A=    0.0000 R=    0.0000 C=    0.0000
 XYZ=    1.9647    9.8772   -0.8290 Q=    0.4100 A=    0.0000 R=    0.0000 C=    0.0000
 XYZ=  -10.7544   -4.8294    2.4321 Q=   -0.8200 A=    0.0000 R=    0.0000 C=    0.0000
 XYZ=  -10.2475   -4.8172    3.2941 Q=    0.4100 A=    0.0000 R=    0.0000 C=    0.0000
 XYZ=  -10.4588   -5.6109    1.8827 Q=    0.4100 A=    0.0000 R=    0.0000 C=    0.0000
 XYZ=    8.3635    2.2935    6.6017 Q=   -0.8200 A=    0.0000 R=    0.0000 C=    0.0000
 XYZ=    9.0621    2.1850    5.8945 Q=    0.4100 A=    0.0000 R=    0.0000 C=    0.0000
 XYZ=    8.7987    2.5590    7.4621 Q=    0.4100 A=    0.0000 R=    0.0000 C=    0.0000
 XYZ=    0.1397   -6.9513   -8.8893 Q=   -0.8200 A=    0.0000 R=    0.0000 C=    0.0000
 XYZ=    0.9843   -6.5728   -8.5105 Q=    0.4100 A=    0.0000 R=    0.0000 C=    0.0000
 XYZ=   -0.4714   -7.2150   -8.1430 Q=    0.4100 A=    0.0000 R=    0.0000 C=    0.0000
 XYZ=    6.9502   -8.3555   -1.5991 Q=   -0.8200 A=    0.0000 R=    0.0000 C=    0.0000
 XYZ=    7.5758   -8.8766   -1.0186 Q=    0.4100 A=    0.0000 R=    0.0000 C=    0.0000
 XYZ=    7.4493   -7.6115   -2.0433 Q=    0.4100 A=    0.0000 R=    0.0000 C=    0.0000
 XYZ=   11.6867    1.3495   -2.9615 Q=   -0.8200 A=    0.0000 R=    0.0000 C=    0.0000
 XYZ=   10.9267    1.5467   -2.3421 Q=    0.4100 A=    0.0000 R=    0.0000 C=    0.0000
 XYZ=   12.3146    0.7057   -2.5242 Q=    0.4100 A=    0.0000 R=    0.0000 C=    0.0000
 XYZ=    7.8441   -0.5284    8.4069 Q=   -0.8200 A=    0.0000 R=    0.0000 C=    0.0000
 XYZ=    7.3178    0.2859    8.1619 Q=    0.4100 A=    0.0000 R=    0.0000 C=    0.0000
 XYZ=    8.7528   -0.2553    8.7228 Q=    0.4100 A=    0.0000 R=    0.0000 C=    0.0000
 XYZ=   -8.9452    1.4527   -8.4080 Q=   -0.8200 A=    0.0000 R=    0.0000 C=    0.0000
 XYZ=   -8.9968    1.6498   -9.3870 Q=    0.4100 A=    0.0000 R=    0.0000 C=    0.0000
 XYZ=   -8.3163    2.0961   -7.9712 Q=    0.4100 A=    0.0000 R=    0.0000 C=    0.0000
 XYZ=  -11.2862    3.0168    4.9037 Q=   -0.8200 A=    0.0000 R=    0.0000 C=    0.0000
 XYZ=  -12.2021    3.3874    5.0583 Q=    0.4100 A=    0.0000 R=    0.0000 C=    0.0000
 XYZ=  -10.6181    3.7606    4.9230 Q=    0.4100 A=    0.0000 R=    0.0000 C=    0.0000
 XYZ=   -5.2498    0.4023  -11.0834 Q=   -0.8200 A=    0.0000 R=    0.0000 C=    0.0000
 XYZ=   -5.5820    0.0845  -10.1953 Q=    0.4100 A=    0.0000 R=    0.0000 C=    0.0000
 XYZ=   -6.0176    0.4741  -11.7202 Q=    0.4100 A=    0.0000 R=    0.0000 C=    0.0000
 XYZ=   -6.1152   -2.6362   -9.2618 Q=   -0.8200 A=    0.0000 R=    0.0000 C=    0.0000
 XYZ=   -7.0788   -2.4499   -9.0703 Q=    0.4100 A=    0.0000 R=    0.0000 C=    0.0000
 XYZ=   -6.0452   -3.3791   -9.9276 Q=    0.4100 A=    0.0000 R=    0.0000 C=    0.0000
 XYZ=   -6.1748   -6.4211    7.7651 Q=   -0.8200 A=    0.0000 R=    0.0000 C=    0.0000
 XYZ=   -6.1430   -6.7227    6.8121 Q=    0.4100 A=    0.0000 R=    0.0000 C=    0.0000
 XYZ=   -6.6037   -5.5191    7.8150 Q=    0.4100 A=    0.0000 R=    0.0000 C=    0.0000
 XYZ=   -5.0095   -9.6885    3.6833 Q=   -0.8200 A=    0.0000 R=    0.0000 C=    0.0000
 XYZ=   -4.7243   -8.9340    4.2744 Q=    0.4100 A=    0.0000 R=    0.0000 C=    0.0000
 XYZ=   -4.5360  -10.5251    3.9589 Q=    0.4100 A=    0.0000 R=    0.0000 C=    0.0000
 XYZ=   11.7939    0.8285    0.5177 Q=   -0.8200 A=    0.0000 R=    0.0000 C=    0.0000
 XYZ=   11.1667    0.1719    0.9368 Q=    0.4100 A=    0.0000 R=    0.0000 C=    0.0000
 XYZ=   11.3686    1.7335    0.5040 Q=    0.4100 A=    0.0000 R=    0.0000 C=    0.0000
 XYZ=   -1.3072   -7.9888   -7.2266 Q=   -0.8200 A=    0.0000 R=    0.0000 C=    0.0000
 XYZ=   -1.6352   -8.6409   -7.9102 Q=    0.4100 A=    0.0000 R=    0.0000 C=    0.0000
 XYZ=   -2.0858   -7.6138   -6.7234 Q=    0.4100 A=    0.0000 R=    0.0000 C=    0.0000
 XYZ=  -11.8101   -2.3774   -4.1253 Q=   -0.8200 A=    0.0000 R=    0.0000 C=    0.0000
 XYZ=  -11.6145   -1.9134   -4.9893 Q=    0.4100 A=    0.0000 R=    0.0000 C=    0.0000
 XYZ=  -11.3820   -1.8762   -3.3734 Q=    0.4100 A=    0.0000 R=    0.0000 C=    0.0000
 XYZ=    5.7385    5.2532    8.4127 Q=   -0.8200 A=    0.0000 R=    0.0000 C=    0.0000
 XYZ=    6.5916    5.6051    8.7979 Q=    0.4100 A=    0.0000 R=    0.0000 C=    0.0000
 XYZ=    5.9152    4.8705    7.5058 Q=    0.4100 A=    0.0000 R=    0.0000 C=    0.0000
 XYZ=   -3.0834   10.6595    1.5982 Q=   -0.8200 A=    0.0000 R=    0.0000 C=    0.0000
 XYZ=   -3.8567   10.8835    2.1914 Q=    0.4100 A=    0.0000 R=    0.0000 C=    0.0000
 XYZ=   -3.4232   10.3546    0.7085 Q=    0.4100 A=    0.0000 R=    0.0000 C=    0.0000
 XYZ=  -10.7674    1.1499   -5.1206 Q=   -0.8200 A=    0.0000 R=    0.0000 C=    0.0000
 XYZ=  -11.5459    1.4109   -4.5496 Q=    0.4100 A=    0.0000 R=    0.0000 C=    0.0000
 XYZ=  -10.8628    1.5666   -6.0247 Q=    0.4100 A=    0.0000 R=    0.0000 C=    0.0000
 XYZ=   -8.5600   -7.6172   -0.2568 Q=   -0.8200 A=    0.0000 R=    0.0000 C=    0.0000
 XYZ=   -8.6149   -7.3614   -1.2220 Q=    0.4100 A=    0.0000 R=    0.0000 C=    0.0000
 XYZ=   -9.3573   -7.2586    0.2288 Q=    0.4100 A=    0.0000 R=    0.0000 C=    0.0000
 XYZ=   -1.5697  -10.5501    2.8210 Q=   -0.8200 A=    0.0000 R=    0.0000 C=    0.0000
 XYZ=   -0.6650  -10.2077    3.0745 Q=    0.4100 A=    0.0000 R=    0.0000 C=    0.0000
 XYZ=   -1.8113  -10.2117    1.9116 Q=    0.4100 A=    0.0000 R=    0.0000 C=    0.0000
 XYZ=  -12.9937    1.0112    2.3224 Q=   -0.8200 A=    0.0000 R=    0.0000 C=    0.0000
 XYZ=  -13.4835    1.8279    2.6278 Q=    0.4100 A=    0.0000 R=    0.0000 C=    0.0000
 XYZ=  -12.2688    0.7934    2.9760 Q=    0.4100 A=    0.0000 R=    0.0000 C=    0.0000
 XYZ=  -10.8352    4.0874   -5.5949 Q=   -0.8200 A=    0.0000 R=    0.0000 C=    0.0000
 XYZ=  -10.9616    3.4925   -6.3887 Q=    0.4100 A=    0.0000 R=    0.0000 C=    0.0000
 XYZ=   -9.8843    4.0379   -5.2893 Q=    0.4100 A=    0.0000 R=    0.0000 C=    0.0000
 XYZ=  -10.6270   -2.8606    7.1818 Q=   -0.8200 A=    0.0000 R=    0.0000 C=    0.0000
 XYZ=  -11.2884   -2.2843    7.6620 Q=    0.4100 A=    0.0000 R=    0.0000 C=    0.0000
 XYZ=   -9.8564   -2.3007    6.8773 Q=    0.4100 A=    0.0000 R=    0.0000 C=    0.0000
 XYZ=    5.6083    2.8876    8.9851 Q=   -0.8200 A=    0.0000 R=    0.0000 C=    0.0000
 XYZ=    6.3306    2.7480    9.6625 Q=    0.4100 A=    0.0000 R=    0.0000 C=    0.0000
 XYZ=    5.5992    3.8461    8.7002 Q=    0.4100 A=    0.0000 R=    0.0000 C=    0.0000
 XYZ=   -3.8036   -1.4453  -10.9875 Q=   -0.8200 A=    0.0000 R=    0.0000 C=    0.0000
 XYZ=   -4.3998   -0.6716  -11.2021 Q=    0.4100 A=    0.0000 R=    0.0000 C=    0.0000
 XYZ=   -3.9909   -2.1961  -11.6209 Q=    0.4100 A=    0.0000 R=    0.0000 C=    0.0000
 XYZ=    1.4334   -2.6793   11.7497 Q=   -0.8200 A=    0.0000 R=    0.0000 C=    0.0000
 XYZ=    1.1653   -3.1426   10.9050 Q=    0.4100 A=    0.0000 R=    0.0000 C=    0.0000
 XYZ=    0.6712   -2.1231   12.0811 Q=    0.4100 A=    0.0000 R=    0.0000 C=    0.0000
 XYZ=   -0.8769    2.9255  -12.2006 Q=   -0.8200 A=    0.0000 R=    0.0000 C=    0.0000
 XYZ=   -1.4104    2.4073  -11.5322 Q=    0.4100 A=    0.0000 R=    0.0000 C=    0.0000
 XYZ=   -0.2701    2.3042  -12.6965 Q=    0.4100 A=    0.0000 R=    0.0000 C=    0.0000
 XYZ=    1.6438    9.4186    6.3349 Q=   -0.8200 A=    0.0000 R=    0.0000 C=    0.0000
 XYZ=    1.6852    8.6601    5.6846 Q=    0.4100 A=    0.0000 R=    0.0000 C=    0.0000
 XYZ=    2.4962    9.9398    6.2937 Q=    0.4100 A=    0.0000 R=    0.0000 C=    0.0000
 XYZ=    0.3389   -0.7141  -12.1591 Q=   -0.8200 A=    0.0000 R=    0.0000 C=    0.0000
 XYZ=    1.0613   -1.1178  -11.5977 Q=    0.4100 A=    0.0000 R=    0.0000 C=    0.0000
 XYZ=   -0.5363   -0.7901  -11.6812 Q=    0.4100 A=    0.0000 R=    0.0000 C=    0.0000
 XYZ=    8.7001   -3.4019   -8.8640 Q=   -0.8200 A=    0.0000 R=    0.0000 C=    0.0000
 XYZ=    8.1220   -2.6527   -8.5408 Q=    0.4100 A=    0.0000 R=    0.0000 C=    0.0000
 XYZ=    8.5304   -4.2169   -8.3099 Q=    0.4100 A=    0.0000 R=    0.0000 C=    0.0000
 XYZ=   10.4963   -4.0805   -6.1588 Q=   -0.8200 A=    0.0000 R=    0.0000 C=    0.0000
 XYZ=    9.9283   -3.5875   -5.4998 Q=    0.4100 A=    0.0000 R=    0.0000 C=    0.0000
 XYZ=   10.8106   -3.4480   -6.8668 Q=    0.4100 A=    0.0000 R=    0.0000 C=    0.0000
 XYZ=    6.1676   -1.8826    9.4298 Q=   -0.8200 A=    0.0000 R=    0.0000 C=    0.0000
 XYZ=    6.8802   -1.2967    9.0439 Q=    0.4100 A=    0.0000 R=    0.0000 C=    0.0000
 XYZ=    6.5491   -2.7860    9.6262 Q=    0.4100 A=    0.0000 R=    0.0000 C=    0.0000
 XYZ=  -10.7665    2.8186    7.2376 Q=   -0.8200 A=    0.0000 R=    0.0000 C=    0.0000
 XYZ=  -10.8955    2.8982    6.2491 Q=    0.4100 A=    0.0000 R=    0.0000 C=    0.0000
 XYZ=   -9.9287    2.3055    7.4241 Q=    0.4100 A=    0.0000 R=    0.0000 C=    0.0000
 XYZ=   -0.5007  -10.4707   -0.8930 Q=   -0.8200 A=    0.0000 R=    0.0000 C=    0.0000
 XYZ=    0.1250  -11.1797   -0.5677 Q=    0.4100 A=    0.0000 R=    0.0000 C=    0.0000
 XYZ=   -1.1832  -10.8805   -1.4983 Q=    0.4100 A=    0.0000 R=    0.0000 C=    0.0000
 XYZ=    9.1155    6.6546    4.0438 Q=   -0.8200 A=    0.0000 R=    0.0000 C=    0.0000
 XYZ=    9.8986    6.0966    4.3184 Q=    0.4100 A=    0.0000 R=    0.0000 C=    0.0000
 XYZ=    8.6602    6.2283    3.2622 Q=    0.4100 A=    0.0000 R=    0.0000 C=    0.0000
 XYZ=  -12.5009   -0.0898    5.5739 Q=   -0.8200 A=    0.0000 R=    0.0000 C=    0.0000
 XYZ=  -13.2533   -0.5652    5.1178 Q=    0.4100 A=    0.0000 R=    0.0000 C=    0.0000
 XYZ=  -11.8876    0.2998    4.8868 Q=    0.4100 A=    0.0000 R=    0.0000 C=    0.0000
 XYZ=   -5.3107    6.2490    8.5605 Q=   -0.8200 A=    0.0000 R=    0.0000 C=    0.0000
 XYZ=   -6.2701    6.4185    8.7861 Q=    0.4100 A=    0.0000 R=    0.0000 C=    0.0000
 XYZ=   -4.7252    6.7704    9.1814 Q=    0.4100 A=    0.0000 R=    0.0000 C=    0.0000
 XYZ=    3.3123   -6.5222   -9.1831 Q=   -0.8200 A=    0.0000 R=    0.0000 C=    0.0000
 XYZ=    2.8459   -7.3574   -8.8913 Q=    0.4100 A=    0.0000 R=    0.0000 C=    0.0000
 XYZ=    4.2269   -6.4930   -8.7798 Q=    0.4100 A=    0.0000 R=    0.0000 C=    0.0000
 XYZ=    1.7634   10.8550    1.9780 Q=   -0.8200 A=    0.0000 R=    0.0000 C=    0.0000
 XYZ=    1.2626   10.0662    2.3345 Q=    0.4100 A=    0.0000 R=    0.0000 C=    0.0000
 XYZ=    1.9400   10.7244    1.0024 Q=    0.4100 A=    0.0000 R=    0.0000 C=    0.0000
 XYZ=   -1.7626   10.4642   -6.8179 Q=   -0.8200 A=    0.0000 R=    0.0000 C=    0.0000
 XYZ=   -1.1778    9.9412   -6.1979 Q=    0.4100 A=    0.0000 R=    0.0000 C=    0.0000
 XYZ=   -1.3304   11.3425   -7.0223 Q=    0.4100 A=    0.0000 R=    0.0000 C=    0.0000
 XYZ=    2.6580    1.2369   11.6599 Q=   -0.8200 A=    0.0000 R=    0.0000 C=    0.0000
 XYZ=    3.0566    1.5696   10.8053 Q=    0.4100 A=    0.0000 R=    0.0000 C=    0.0000
 XYZ=    2.6095    0.2382   11.6384 Q=    0.4100 A=    0.0000 R=    0.0000 C=    0.0000
 XYZ=    4.4558   -1.3080  -11.9642 Q=   -0.8200 A=    0.0000 R=    0.0000 C=    0.0000
 XYZ=    4.1439   -0.5390  -11.4062 Q=    0.4100 A=    0.0000 R=    0.0000 C=    0.0000
 XYZ=    5.0035   -1.9274  -11.4017 Q=    0.4100 A=    0.0000 R=    0.0000 C=    0.0000
 XYZ=    0.5852    2.1487   11.4257 Q=   -0.8200 A=    0.0000 R=    0.0000 C=    0.0000
 XYZ=    1.4955    1.7390   11.4858 Q=    0.4100 A=    0.0000 R=    0.0000 C=    0.0000
 XYZ=    0.6689    3.1450   11.4037 Q=    0.4100 A=    0.0000 R=    0.0000 C=    0.0000
 XYZ=   -3.2392    1.4720   11.9656 Q=   -0.8200 A=    0.0000 R=    0.0000 C=    0.0000
 XYZ=   -3.9049    1.6703   12.6850 Q=    0.4100 A=    0.0000 R=    0.0000 C=    0.0000
 XYZ=   -3.2242    2.2256   11.3084 Q=    0.4100 A=    0.0000 R=    0.0000 C=    0.0000
 XYZ=   -1.2059    6.2696  -10.2856 Q=   -0.8200 A=    0.0000 R=    0.0000 C=    0.0000
 XYZ=   -0.7721    7.0675   -9.8670 Q=    0.4100 A=    0.0000 R=    0.0000 C=    0.0000
 XYZ=   -0.5022    5.6650  -10.6588 Q=    0.4100 A=    0.0000 R=    0.0000 C=    0.0000
 XYZ=   -8.5713   -1.1268   -9.1530 Q=   -0.8200 A=    0.0000 R=    0.0000 C=    0.0000
 XYZ=   -9.3829   -1.5068   -8.7092 Q=    0.4100 A=    0.0000 R=    0.0000 C=    0.0000
 XYZ=   -8.4367   -0.1833   -8.8498 Q=    0.4100 A=    0.0000 R=    0.0000 C=    0.0000
 XYZ=  -13.5252   -2.3725    2.1517 Q=   -0.8200 A=    0.0000 R=    0.0000 C=    0.0000
 XYZ=  -14.0396   -1.8327    1.4853 Q=    0.4100 A=    0.0000 R=    0.0000 C=    0.0000
 XYZ=  -12.5469   -2.1998    2.0366 Q=    0.4100 A=    0.0000 R=    0.0000 C=    0.0000
[...]
    39  O    0.000000  -0.000004   0.000004   0.000000   0.000000   0.000000
    40  H    0.000000   0.000000   0.000000   0.000000   0.000000   0.000000
    41  H    0.000000   0.000000   0.000000   0.000000   0.000000   0.000000
    42  O    0.000000   0.000000   0.000000   0.000000   0.000000   0.000000
    43  H    0.000000   0.000000   0.000000   0.000000   0.000000   0.000000
    44  H    0.000000   0.000000   0.000000   0.000000   0.000000   0.000000
    45  O   -0.000014  -0.001012  -0.068775   0.000178   0.002148   0.000002
    46  H    0.000026   0.002045   0.031070   0.000373  -0.003217   0.000000
    47  H    0.000000   0.000090  -0.000310   0.000054   0.000275   0.000000
    48  O    0.000000  -0.000006  -0.000013  -0.000003   0.000000   0.000000
    49  H    0.000000   0.000000  -0.000007   0.000000   0.000000   0.000000
    50  H    0.000000   0.000000   0.000000   0.000000   0.000000   0.000000
              31         32         33         34         35         36
     1  C    0.000655   0.000006   0.006251  -0.000138   0.002020  -0.020897
     2  H   -0.000003   0.000000  -0.000010   0.000000   0.000000   0.000007
     3  H    0.000000   0.000000  -0.000047   0.000000   0.000000  -0.000011
     4  C    0.001688  -0.000260   0.002155  -0.002453  -0.001605   0.029525
     5  H    0.000000   0.000000   0.000367   0.000024   0.000124  -0.000079
     6  C    0.001226  -0.000005  -0.007234   0.001835  -0.000138  -0.005375
     7  H   -0.000022   0.000000  -0.000098   0.000000   0.000004   0.000184
     8  O    0.003998   0.000023  -0.000119   0.000001   0.000009  -0.000229
     9  O    0.022749   0.000494  -0.000005   0.000000   0.000000   0.000050
    10  H    0.000758   0.000064  -0.000001   0.000000   0.000000  -0.000019
    11  H    0.000796  -0.000077   0.000000   0.000000   0.000000   0.000000
    12  O   -0.000006   0.000000   0.000001   0.000000   0.000000   0.000017
    13  H    0.000000   0.000000   0.000000   0.000000   0.000000  -0.000002
    14  H   -0.000006   0.000000   0.000000   0.000000   0.000000   0.000000
    15  O    0.003426   0.001669   0.000001   0.000000   0.000000  -0.000019
    16  H    0.000161   0.000009   0.000000   0.000000   0.000000   0.000000
    17  H    0.003835   0.000100   0.000000   0.000000   0.000000   0.000001
    18  O    0.000000   0.000000  -0.029210   0.009891   0.000923  -0.101725
    19  H    0.000000   0.000000   0.014310  -0.003085   0.001944   0.001517
    20  H    0.000000   0.000000  -0.000893  -0.000217  -0.000018  -0.005340
    21  O    0.000000   0.000000   0.003343  -0.001375   0.005585  -0.001762
    22  H    0.000000   0.000000   0.005198  -0.000617  -0.000555  -0.001047
    23  H    0.000000   0.000000   0.005909  -0.000317   0.006980   0.000007
    24  O    0.000022  -0.000001  -0.000006   0.000000   0.000000   0.000035
    25  H    0.000002   0.000000   0.000000   0.000000   0.000000   0.000000
    26  H    0.000000   0.000000   0.000001   0.000000   0.000000  -0.000001
    27  O    0.000138   0.000003  -0.000007   0.000000   0.000000   0.000006
    28  H    0.000010  -0.000003   0.000000   0.000000   0.000000   0.000000
    29  H    0.000000   0.000000   0.000000   0.000000   0.000000   0.000000
    30  O    0.162192   0.215383   0.000000   0.000000   0.000000   0.000000
    31  H    0.256138  -0.005395   0.000000   0.000000   0.000000   0.000000
    32  H   -0.005395   0.180893   0.000000   0.000000   0.000000   0.000000
    33  O    0.000000   0.000000   8.886788   0.192153   0.166379  -0.010367
    34  H    0.000000   0.000000   0.192153   0.195011  -0.004882   0.000558
    35  H    0.000000   0.000000   0.166379  -0.004882   0.211422   0.000022
    36  O    0.000000   0.000000  -0.010367   0.000558   0.000022   9.027862
    37  H    0.000000   0.000000   0.001703  -0.000213  -0.000054   0.151273
    38  H    0.000000   0.000000   0.000416  -0.000003   0.000003   0.197988
    39  O    0.000000   0.000000  -0.031414   0.004151   0.003084  -0.091877
    40  H    0.000000   0.000000   0.003339   0.004414  -0.000414   0.001049
    41  H    0.000000   0.000000   0.001302  -0.000088   0.000013   0.001016
    42  O    0.000000   0.000000  -0.000783   0.000045   0.000016  -0.025969
    43  H    0.000000   0.000000  -0.000026   0.000000   0.000000   0.000503
    44  H    0.000000   0.000000  -0.000216  -0.000002  -0.000008   0.001560
    45  O    0.000000   0.000000  -0.000003   0.000000   0.000008   0.000001
    46  H    0.000000   0.000000  -0.000001   0.000000   0.000000   0.000000
    47  H    0.000000   0.000000   0.000000   0.000000   0.000000   0.000000
    48  O    0.000000   0.000000  -0.022010  -0.002289   0.030064   0.000013
    49  H    0.000000   0.000000   0.001509  -0.000013   0.000395   0.000000
    50  H    0.000000   0.000000  -0.000726   0.000065  -0.002849  -0.000001
              37         38         39         40         41         42
     1  C    0.001926  -0.004631   0.003842  -0.000463  -0.000050   0.020393
     2  H    0.000000   0.000000   0.000000   0.000000   0.000000   0.000032
     3  H    0.000000   0.000001  -0.000001   0.000000   0.000000  -0.000222
     4  C   -0.003204  -0.004117  -0.010475  -0.000183  -0.000341  -0.045770
     5  H   -0.000009  -0.000005   0.000382  -0.000001   0.000001   0.000413
     6  C    0.000775   0.015181   0.008073   0.000511   0.000316   0.014351
     7  H   -0.000019  -0.000026   0.000153  -0.000001  -0.000002  -0.000015
     8  O    0.000004  -0.000805  -0.000044  -0.000002   0.000000   0.000642
     9  O   -0.000004  -0.000004   0.000013   0.000000   0.000000   0.000009
    10  H    0.000000   0.000001   0.000001   0.000000   0.000000   0.000007
    11  H    0.000000   0.000000   0.000000   0.000000   0.000000   0.000000
    12  O    0.000000  -0.000014   0.000000   0.000000   0.000000   0.000250
    13  H    0.000000   0.000000   0.000000   0.000000   0.000000  -0.000644
    14  H    0.000000   0.000001   0.000000   0.000000   0.000000   0.000028
    15  O    0.000001   0.000002  -0.000004   0.000000   0.000000   0.000000
    16  H    0.000000   0.000000   0.000000   0.000000   0.000000   0.000000
    17  H    0.000000   0.000000   0.000000   0.000000   0.000000   0.000000
    18  O    0.004617  -0.000900  -0.001066  -0.000388  -0.000012  -0.070350
    19  H   -0.000444  -0.000050   0.003642  -0.000105   0.000005   0.002252
    20  H   -0.001106  -0.002713   0.007282  -0.000560   0.000011   0.019742
    21  O    0.000715   0.000089  -0.066945   0.005947  -0.000147  -0.000009
    22  H    0.001105   0.000016  -0.007262  -0.005201   0.000412  -0.000001
    23  H   -0.000035  -0.000002  -0.001722   0.000031   0.000125   0.000000
    24  O   -0.000009  -0.000001  -0.000010  -0.000001   0.000005   0.000000
    25  H    0.000000   0.000000   0.000000   0.000000   0.000000   0.000000
    26  H    0.000000   0.000000  -0.000004   0.000000   0.000000   0.000000
    27  O   -0.000001   0.000000   0.000004   0.000000   0.000000   0.000000
    28  H    0.000000   0.000000   0.000000   0.000000   0.000000   0.000000
    29  H    0.000000   0.000000   0.000000   0.000000   0.000000   0.000000
    30  O    0.000000   0.000000   0.000000   0.000000   0.000000   0.000000
    31  H    0.000000   0.000000   0.000000   0.000000   0.000000   0.000000
    32  H    0.000000   0.000000   0.000000   0.000000   0.000000   0.000000
    33  O    0.001703   0.000416  -0.031414   0.003339   0.001302  -0.000783
    34  H   -0.000213  -0.000003   0.004151   0.004414  -0.000088   0.000045
    35  H   -0.000054   0.000003   0.003084  -0.000414   0.000013   0.000016
    36  O    0.151273   0.197988  -0.091877   0.001049   0.001016  -0.025969
    37  H    0.202318  -0.010876   0.023566   0.000914  -0.001051   0.000396
    38  H   -0.010876   0.258305   0.002458   0.000028  -0.000015   0.005748
    39  O    0.023566   0.002458   9.057877   0.199662   0.174167   0.000491
    40  H    0.000914   0.000028   0.199662   0.161402  -0.007213  -0.000015
    41  H   -0.001051  -0.000015   0.174167  -0.007213   0.145036   0.000005
    42  O    0.000396   0.005748   0.000491  -0.000015   0.000005   8.883432
    43  H   -0.000005  -0.000057  -0.000008   0.000000   0.000000   0.216149
    44  H   -0.000047  -0.000719  -0.000265   0.000008   0.000000   0.173089
    45  O    0.000000   0.000000   0.000006   0.000000   0.000000   0.000000
    46  H    0.000000   0.000000  -0.000002   0.000000   0.000000   0.000000
    47  H    0.000000   0.000000   0.000000   0.000000   0.000000   0.000000
    48  O   -0.000021   0.000000  -0.000522  -0.000494  -0.000007  -0.000003
    49  H    0.000000   0.000000  -0.000062  -0.000001   0.000000   0.000000
    50  H    0.000000   0.000000   0.000068  -0.000001   0.000000   0.000000
              43         44         45         46         47         48
     1  C   -0.005250  -0.000986  -0.000226   0.000250  -0.000001   0.005357
     2  H    0.000004  -0.000015   0.000000   0.000000   0.000000   0.000000
     3  H    0.000011  -0.000033   0.000000   0.000000   0.000000  -0.000002
     4  C    0.004499   0.003270   0.001500  -0.000054  -0.000069   0.002259
     5  H   -0.000001  -0.000044  -0.000005  -0.000001   0.000000  -0.000009
     6  C   -0.000089  -0.001988  -0.002633  -0.000057   0.000129  -0.004873
     7  H    0.000000   0.000000  -0.000006   0.000000   0.000000  -0.000007
     8  O   -0.000004   0.000000   0.000021   0.000003   0.000000   0.000012
     9  O    0.000000  -0.000001  -0.000022  -0.000016   0.000000   0.000000
    10  H    0.000000   0.000000   0.000000   0.000000   0.000000   0.000000
    11  H    0.000000   0.000000   0.000000   0.000000   0.000000   0.000000
    12  O    0.000037   0.000014   0.000000   0.000000   0.000000   0.000000
    13  H    0.000018   0.000004   0.000000   0.000000   0.000000   0.000000
    14  H    0.000000   0.000000   0.000000   0.000000   0.000000   0.000000
    15  O    0.000000   0.000000  -0.001269   0.000782  -0.000001  -0.000003
    16  H    0.000000   0.000000  -0.000032   0.000018   0.000000   0.000000
    17  H    0.000000   0.000000   0.000023  -0.000004   0.000000   0.000000
    18  O   -0.001051   0.043459   0.000000   0.000000   0.000000  -0.000478
    19  H    0.000005   0.000900   0.000000   0.000000   0.000000   0.000125
    20  H   -0.000228  -0.006997   0.000000   0.000000   0.000000  -0.000002
    21  O    0.000000  -0.000001  -0.000543   0.000056   0.000006  -0.078270
    22  H    0.000000   0.000000  -0.000009   0.000001   0.000000   0.001475
    23  H    0.000000   0.000000   0.000034   0.000003   0.000000   0.031446
    24  O    0.000000   0.000000  -0.001942   0.000162   0.000065   0.000015
    25  H    0.000000   0.000000  -0.000014   0.000026   0.000000   0.000000
    26  H    0.000000   0.000000  -0.001012   0.002045   0.000090  -0.000006
    27  O    0.000000   0.000000  -0.068775   0.031070  -0.000310  -0.000013
    28  H    0.000000   0.000000   0.000178   0.000373   0.000054  -0.000003
    29  H    0.000000   0.000000   0.002148  -0.003217   0.000275   0.000000
    30  O    0.000000   0.000000   0.000002   0.000000   0.000000   0.000000
    31  H    0.000000   0.000000   0.000000   0.000000   0.000000   0.000000
    32  H    0.000000   0.000000   0.000000   0.000000   0.000000   0.000000
    33  O   -0.000026  -0.000216  -0.000003  -0.000001   0.000000  -0.022010
    34  H    0.000000  -0.000002   0.000000   0.000000   0.000000  -0.002289
    35  H    0.000000  -0.000008   0.000008   0.000000   0.000000   0.030064
    36  O    0.000503   0.001560   0.000001   0.000000   0.000000   0.000013
    37  H   -0.000005  -0.000047   0.000000   0.000000   0.000000  -0.000021
    38  H   -0.000057  -0.000719   0.000000   0.000000   0.000000   0.000000
    39  O   -0.000008  -0.000265   0.000006  -0.000002   0.000000  -0.000522
    40  H    0.000000   0.000008   0.000000   0.000000   0.000000  -0.000494
    41  H    0.000000   0.000000   0.000000   0.000000   0.000000  -0.000007
    42  O    0.216149   0.173089   0.000000   0.000000   0.000000  -0.000003
    43  H    0.202865  -0.005716   0.000000   0.000000   0.000000   0.000000
    44  H   -0.005716   0.188001   0.000000   0.000000   0.000000  -0.000003
    45  O    0.000000   0.000000   8.899774   0.150269   0.216307   0.001270
    46  H    0.000000   0.000000   0.150269   0.212187  -0.004459  -0.000153
    47  H    0.000000   0.000000   0.216307  -0.004459   0.226905  -0.000007
    48  O    0.000000  -0.000003   0.001270  -0.000153  -0.000007   8.875677
    49  H    0.000000   0.000000  -0.000815   0.000021   0.000001   0.195615
    50  H    0.000000   0.000000  -0.000003   0.000000   0.000000   0.213009
              49         50
     1  C   -0.000022  -0.000058
     2  H    0.000000   0.000000
     3  H    0.000000   0.000000
     4  C   -0.000103  -0.000044
     5  H   -0.000003   0.000000
     6  C    0.000098   0.000025
     7  H    0.000000   0.000000
     8  O    0.000000   0.000000
     9  O    0.000000   0.000000
    10  H    0.000000   0.000000
    11  H    0.000000   0.000000
    12  O    0.000000   0.000000
    13  H    0.000000   0.000000
    14  H    0.000000   0.000000
    15  O    0.000000   0.000000
    16  H    0.000000   0.000000
    17  H    0.000000   0.000000
    18  O   -0.000004  -0.000025
    19  H   -0.000001  -0.000003
    20  H    0.000000   0.000000
    21  O   -0.000545  -0.000100
    22  H    0.000051   0.000002
    23  H    0.000033  -0.001503
    24  O    0.000000   0.000000
    25  H    0.000000   0.000000
    26  H    0.000000   0.000000
    27  O   -0.000007   0.000000
    28  H    0.000000   0.000000
    29  H    0.000000   0.000000
    30  O    0.000000   0.000000
    31  H    0.000000   0.000000
    32  H    0.000000   0.000000
    33  O    0.001509  -0.000726
    34  H   -0.000013   0.000065
    35  H    0.000395  -0.002849
    36  O    0.000000  -0.000001
    37  H    0.000000   0.000000
    38  H    0.000000   0.000000
    39  O   -0.000062   0.000068
    40  H   -0.000001  -0.000001
    41  H    0.000000   0.000000
    42  O    0.000000   0.000000
    43  H    0.000000   0.000000
    44  H    0.000000   0.000000
    45  O   -0.000815  -0.000003
    46  H    0.000021   0.000000
    47  H    0.000001   0.000000
    48  O    0.195615   0.213009
    49  H    0.149365  -0.003618
    50  H   -0.003618   0.149410
 Mulliken charges:
               1
     1  C   -0.478380
     2  H    0.228619
     3  H    0.253877
     4  C    0.009993
     5  H    0.251008
     6  C    0.080666
     7  H    0.231701
     8  O   -0.503735
     9  O   -1.314642
    10  H    0.622659
    11  H    0.656097
    12  O   -1.101026
    13  H    0.617276
    14  H    0.499030
    15  O   -1.168997
    16  H    0.593331
    17  H    0.576200
    18  O   -1.282258
    19  H    0.625383
    20  H    0.588850
    21  O   -1.199275
    22  H    0.598213
    23  H    0.546302
    24  O   -1.153794
    25  H    0.508565
    26  H    0.617682
    27  O   -1.332624
    28  H    0.644301
    29  H    0.661873
    30  O   -1.139917
    31  H    0.547639
    32  H    0.607098
    33  O   -1.187953
    34  H    0.607543
    35  H    0.581528
    36  O   -1.148474
    37  H    0.627786
    38  H    0.544702
    39  O   -1.277238
    40  H    0.637737
    41  H    0.686511
    42  O   -1.193709
    43  H    0.588344
    44  H    0.606735
    45  O   -1.194232
    46  H    0.610696
    47  H    0.561016
    48  O   -1.247162
    49  H    0.658105
    50  H    0.646352
 Sum of Mulliken charges =   0.00000
 Mulliken charges with hydrogens summed into heavy atoms:
               1
     1  C    0.004116
     4  C    0.261002
     6  C    0.312367
     8  O    0.118924
     9  O   -0.658545
    12  O    0.015280
    15  O    0.000534
    18  O   -0.068025
    21  O   -0.054760
    24  O   -0.027547
    27  O   -0.026450
    30  O    0.014819
    33  O    0.001118
    36  O    0.024013
    39  O    0.047010
    42  O    0.001370
    45  O   -0.022520
    48  O    0.057296
 Electronic spatial extent (au):  <R**2>=          10334.5664
 Charge=              0.0000 electrons
 Dipole moment (field-independent basis, Debye):
    X=             -5.2714    Y=             -4.8313    Z=             -1.8227  Tot=              7.3791
 Quadrupole moment (field-independent basis, Debye-Ang):
   XX=            -90.3697   YY=           -166.0229   ZZ=           -110.8627
   XY=            -21.7580   XZ=              9.1553   YZ=             25.9898
 Traceless Quadrupole moment (field-independent basis, Debye-Ang):
   XX=             32.0488   YY=            -43.6045   ZZ=             11.5557
   XY=            -21.7580   XZ=              9.1553   YZ=             25.9898
 Octapole moment (field-independent basis, Debye-Ang**2):
  XXX=           -224.0887  YYY=            -28.0846  ZZZ=             -1.6852  XYY=            -42.4775
  XXY=           -331.6811  XXZ=             79.7531  XZZ=            -52.9162  YZZ=            -13.6304
  YYZ=           -134.8741  XYZ=             28.7407
 Hexadecapole moment (field-independent basis, Debye-Ang**3):
 XXXX=          -5305.6820 YYYY=          -5685.1621 ZZZZ=          -1079.4308 XXXY=           -575.6226
 XXXZ=            352.1450 YYYX=          -1068.3590 YYYZ=            526.8117 ZZZX=            -40.3622
 ZZZY=            147.9067 XXYY=          -1853.0133 XXZZ=           -970.7158 YYZZ=          -1053.2428
 XXYZ=            291.5587 YYXZ=            195.9351 ZZXY=            194.7640
 N-N= 1.190237446518D+03 E-N=-6.344577911022D+03  KE= 1.250218177007D+03
 Leave Link  601 at Fri Sep 14 17:49:17 2018, MaxMem=    33554432 cpu:        10.5
 (Enter /usr/local/pacerepov1/gaussian/G09D01LINDA/g09/l9999.exe)

 Test job not archived.
 1\1\GINC-RICH133-C38-30-R\SP\RLC-wPBE TD-FC\6-31+G(d)\C3H32O15\ROOT\14
 -Sep-2018\0\\#p td=(nstates=15)/6-31+g(d) lc-wpbe charge\\Acroleina in
  Water\\0,1\C,0,0.485154,0.480443,-1.430142\H,0,1.461403,0.187773,-1.0
 55732\H,0,0.429244,0.878853,-2.437062\C,0,-0.605127,0.346563,-0.658432
 \H,0,-1.591686,0.632893,-1.012412\C,0,-0.508516,-0.199107,0.712798\H,0
 ,-1.458487,-0.272107,1.272438\O,0,0.544883,-0.561317,1.236519\O,0,0.74
 3911,-1.600639,2.633061\H,0,1.06381,-1.007209,1.894471\H,0,1.261781,-1
 .404899,3.465861\O,0,3.851201,0.947411,0.288601\H,0,3.707911,1.917161,
 0.090721\H,0,2.970191,0.510711,0.470611\O,0,-1.332389,-2.880449,2.4913
 71\H,0,-1.3924,-3.129309,3.458081\H,0,-0.45375,-2.436539,2.315421\O,0,
 -1.36176,3.861301,-1.166869\H,0,-2.23841,3.436001,-1.391969\H,0,-1.333
 65,4.06952,-0.189179\O,0,-5.42144,1.852851,0.872721\H,0,-4.68299,2.483
 301,1.112131\H,0,-5.27081,1.498201,-0.050089\O,0,-3.309799,-1.234369,3
 .915991\H,0,-2.31951,-1.142449,4.020481\H,0,-3.50879,-1.844229,3.14883
 1\O,0,-3.566459,-2.706789,2.083561\H,0,-2.57222,-2.772209,2.168761\H,0
 ,-3.98391,-3.564139,2.384891\O,0,1.87515,-4.0039,2.201351\H,0,1.33252,
 -3.210419,1.925681\H,0,1.29299,-4.65098,2.693661\O,0,-3.527679,2.84212
 1,-1.581589\H,0,-3.8512,3.662781,-1.110549\H,0,-4.22378,2.126711,-1.52
 0839\O,0,-1.41247,4.082321,1.157281\H,0,-2.33801,3.794221,1.403201\H,0
 ,-0.790459,3.302611,1.229501\O,0,-3.701169,3.389661,1.318851\H,0,-4.21
 186,3.912121,0.636011\H,0,-3.92646,3.726461,2.233101\O,0,1.020761,4.00
 382,-0.741579\H,0,1.56855,4.604801,-1.323629\H,0,0.066341,4.03126,-1.0
 38889\O,0,-5.530509,-2.681599,0.670631\H,0,-4.632289,-2.473319,1.05771
 1\H,0,-5.597839,-3.663649,0.494301\O,0,-5.501229,0.918211,-1.507139\H,
 0,-6.03244,0.081861,-1.371419\H,0,-5.96778,1.505731,-2.168319\\Version
 =EM64L-G09RevD.01\State=1-A\HF=-1758.8547748\RMSD=7.383e-09\PG=C01 [X(
 C3H32O15)]\\@


 KNOWLEDGE IS OF TWO KINDS:  WE KNOW A SUBJECT OURSELVES OR WE KNOW 
 WHERE WE CAN FIND INFORMATION UPON IT.

                                    -- SAMUEL JOHNSON
 Job cpu time:       0 days  2 hours 23 minutes  0.4 seconds.
 File lengths (MBytes):  RWF=    792 Int=      0 D2E=      0 Chk=     96 Scr=      2
 Normal termination of Gaussian 09 at Fri Sep 14 17:49:26 2018.
