 Entering Gaussian System, Link 0=g09
 Input=Acroleina_water_15_60c.gjf
 Output=Acroleina_water_15_60c.log
 Initial command:
 /usr/local/pacerepov1/gaussian/G09D01LINDA/g09/l1.exe /nv/hp18/holiveira7/scratch/22411961/Gau-46347.inp -scrdir=/nv/hp18/holiveira7/scratch/22411961/
 Entering Link 1 = /usr/local/pacerepov1/gaussian/G09D01LINDA/g09/l1.exe PID=     46348.
  
 Copyright (c) 1988,1990,1992,1993,1995,1998,2003,2009,2013,
            Gaussian, Inc.  All Rights Reserved.
  
 This is part of the Gaussian(R) 09 program.  It is based on
 the Gaussian(R) 03 system (copyright 2003, Gaussian, Inc.),
 the Gaussian(R) 98 system (copyright 1998, Gaussian, Inc.),
 the Gaussian(R) 94 system (copyright 1995, Gaussian, Inc.),
 the Gaussian 92(TM) system (copyright 1992, Gaussian, Inc.),
 the Gaussian 90(TM) system (copyright 1990, Gaussian, Inc.),
 the Gaussian 88(TM) system (copyright 1988, Gaussian, Inc.),
 the Gaussian 86(TM) system (copyright 1986, Carnegie Mellon
 University), and the Gaussian 82(TM) system (copyright 1983,
 Carnegie Mellon University). Gaussian is a federally registered
 trademark of Gaussian, Inc.
  
 This software contains proprietary and confidential information,
 including trade secrets, belonging to Gaussian, Inc.
  
 This software is provided under written license and may be
 used, copied, transmitted, or stored only in accord with that
 written license.
  
 The following legend is applicable only to US Government
 contracts under FAR:
  
                    RESTRICTED RIGHTS LEGEND
  
 Use, reproduction and disclosure by the US Government is
 subject to restrictions as set forth in subparagraphs (a)
 and (c) of the Commercial Computer Software - Restricted
 Rights clause in FAR 52.227-19.
  
 Gaussian, Inc.
 340 Quinnipiac St., Bldg. 40, Wallingford CT 06492
  
  
 ---------------------------------------------------------------
 Warning -- This program may not be used in any manner that
 competes with the business of Gaussian, Inc. or will provide
 assistance to any competitor of Gaussian, Inc.  The licensee
 of this program is prohibited from giving any competitor of
 Gaussian, Inc. access to this program.  By using this program,
 the user acknowledges that Gaussian, Inc. is engaged in the
 business of creating and licensing software in the field of
 computational chemistry and represents and warrants to the
 licensee that it is not a competitor of Gaussian, Inc. and that
 it will not use this program in any manner prohibited above.
 ---------------------------------------------------------------
  

 Cite this work as:
 Gaussian 09, Revision D.01,
 M. J. Frisch, G. W. Trucks, H. B. Schlegel, G. E. Scuseria, 
 M. A. Robb, J. R. Cheeseman, G. Scalmani, V. Barone, B. Mennucci, 
 G. A. Petersson, H. Nakatsuji, M. Caricato, X. Li, H. P. Hratchian, 
 A. F. Izmaylov, J. Bloino, G. Zheng, J. L. Sonnenberg, M. Hada, 
 M. Ehara, K. Toyota, R. Fukuda, J. Hasegawa, M. Ishida, T. Nakajima, 
 Y. Honda, O. Kitao, H. Nakai, T. Vreven, J. A. Montgomery, Jr., 
 J. E. Peralta, F. Ogliaro, M. Bearpark, J. J. Heyd, E. Brothers, 
 K. N. Kudin, V. N. Staroverov, T. Keith, R. Kobayashi, J. Normand, 
 K. Raghavachari, A. Rendell, J. C. Burant, S. S. Iyengar, J. Tomasi, 
 M. Cossi, N. Rega, J. M. Millam, M. Klene, J. E. Knox, J. B. Cross, 
 V. Bakken, C. Adamo, J. Jaramillo, R. Gomperts, R. E. Stratmann, 
 O. Yazyev, A. J. Austin, R. Cammi, C. Pomelli, J. W. Ochterski, 
 R. L. Martin, K. Morokuma, V. G. Zakrzewski, G. A. Voth, 
 P. Salvador, J. J. Dannenberg, S. Dapprich, A. D. Daniels, 
 O. Farkas, J. B. Foresman, J. V. Ortiz, J. Cioslowski, 
 and D. J. Fox, Gaussian, Inc., Wallingford CT, 2013.
 
 ******************************************
 Gaussian 09:  EM64L-G09RevD.01 24-Apr-2013
                14-Sep-2018 
 ******************************************
 %chk=Acrolina_Din_60.chk
 %nprocshared=10
 Will use up to   10 processors via shared memory.
 -------------------------------------------
 #p td=(nstates=15)/6-31+g(d) lc-wpbe charge
 -------------------------------------------
 1/18=10,28=-2,38=1,125=101/1;
 2/12=2,17=6,18=5,40=1/2;
 3/5=1,6=6,7=11,11=9,16=1,25=1,30=1,74=-41/1,2,8,3;
 4//1;
 5/5=2,38=5/2;
 8/6=1,10=2,108=15/1;
 9/41=15,42=1,70=2/14;
 6/7=2,8=2,9=2,10=2/1;
 99/5=1,9=1/99;
 Leave Link    1 at Fri Sep 14 17:22:45 2018, MaxMem=           0 cpu:         3.1
 (Enter /usr/local/pacerepov1/gaussian/G09D01LINDA/g09/l101.exe)
 ------------------
 Acroleina in Water
 ------------------
 Symbolic Z-matrix:
 Charge =  0 Multiplicity = 1
 C                     0.48515   0.48044  -1.43014 
 H                     1.4614    0.18777  -1.05573 
 H                     0.42924   0.87885  -2.43706 
 C                    -0.60513   0.34656  -0.65843 
 H                    -1.59169   0.63289  -1.01241 
 C                    -0.50852  -0.19911   0.7128 
 H                    -1.45849  -0.27211   1.27244 
 O                     0.54488  -0.56132   1.23652 
 O                     0.37279  -2.22013   2.03151 
 H                     0.88392  -1.79963   1.28188 
 H                     0.97538  -2.33799   2.82083 
 O                     3.59276   0.36993  -0.59791 
 H                     3.30017   1.07654  -1.24224 
 H                     2.85982   0.19405   0.05926 
 O                    -1.8337    3.8239   -0.01419 
 H                    -2.82342   3.68781   0.03092 
 H                    -1.38541   3.236     0.6592 
 O                    -1.66618   3.15969  -2.39899 
 H                    -2.59324   3.08382  -2.7662 
 H                    -1.71022   3.41248  -1.43246 
 O                    -3.43309  -1.43783   2.41878 
 H                    -3.14012  -1.19477   1.49405 
 H                    -2.65371  -1.79819   2.93139 
 O                    -4.14875   3.44328  -0.00069 
 H                    -4.65188   3.92326  -0.71938 
 H                    -4.54755   3.66378   0.88947 
 O                     1.26366   2.92771  -2.79047 
 H                     1.37786   3.87531  -3.08885 
 H                     0.31575   2.77896  -2.5087 
 O                     1.55885  -4.37328   1.63092 
 H                     0.87105  -3.66056   1.49305 
 H                     1.11595  -5.20221   1.97254 
 O                    -1.55714  -2.58345   3.10833 
 H                    -1.50024  -3.4707    3.56613 
 H                    -0.66088  -2.34247   2.73594 
 O                    -5.81456   1.67592  -0.54335 
 H                    -5.09793   2.35685  -0.39212 
 H                    -5.85078   1.44028  -1.51455 
 O                    -3.94052   2.66906  -2.96995 
 H                    -4.52012   3.36675  -2.54886 
 H                    -4.39096   1.77852  -2.90594 
 O                    -5.42614  -0.05818   3.15323 
 H                    -4.51681  -0.3973    2.91199 
 H                    -5.9662   -0.80272   3.54571 
 O                     3.44867   2.26838  -1.97373 
 H                     4.15059   2.90153  -2.29995 
 H                     2.57408   2.48909  -2.40555 
 O                    -0.8601    6.05465  -0.41187 
 H                    -1.18071   6.80193   0.17023 
 H                    -1.35671   5.21735  -0.18303 
 
 NAtoms=     50 NQM=       50 NQMF=       0 NMMI=      0 NMMIF=      0
                NMic=       0 NMicF=      0.
                    Isotopes and Nuclear Properties:
 (Nuclear quadrupole moments (NQMom) in fm**2, nuclear magnetic moments (NMagM)
  in nuclear magnetons)

  Atom         1           2           3           4           5           6           7           8           9          10
 IAtWgt=          12           1           1          12           1          12           1          16          16           1
 AtmWgt=  12.0000000   1.0078250   1.0078250  12.0000000   1.0078250  12.0000000   1.0078250  15.9949146  15.9949146   1.0078250
 NucSpn=           0           1           1           0           1           0           1           0           0           1
 AtZEff=   0.0000000   0.0000000   0.0000000   0.0000000   0.0000000   0.0000000   0.0000000   0.0000000   0.0000000   0.0000000
 NQMom=    0.0000000   0.0000000   0.0000000   0.0000000   0.0000000   0.0000000   0.0000000   0.0000000   0.0000000   0.0000000
 NMagM=    0.0000000   2.7928460   2.7928460   0.0000000   2.7928460   0.0000000   2.7928460   0.0000000   0.0000000   2.7928460
 AtZNuc=   6.0000000   1.0000000   1.0000000   6.0000000   1.0000000   6.0000000   1.0000000   8.0000000   8.0000000   1.0000000

  Atom        11          12          13          14          15          16          17          18          19          20
 IAtWgt=           1          16           1           1          16           1           1          16           1           1
 AtmWgt=   1.0078250  15.9949146   1.0078250   1.0078250  15.9949146   1.0078250   1.0078250  15.9949146   1.0078250   1.0078250
 NucSpn=           1           0           1           1           0           1           1           0           1           1
 AtZEff=   0.0000000   0.0000000   0.0000000   0.0000000   0.0000000   0.0000000   0.0000000   0.0000000   0.0000000   0.0000000
 NQMom=    0.0000000   0.0000000   0.0000000   0.0000000   0.0000000   0.0000000   0.0000000   0.0000000   0.0000000   0.0000000
 NMagM=    2.7928460   0.0000000   2.7928460   2.7928460   0.0000000   2.7928460   2.7928460   0.0000000   2.7928460   2.7928460
 AtZNuc=   1.0000000   8.0000000   1.0000000   1.0000000   8.0000000   1.0000000   1.0000000   8.0000000   1.0000000   1.0000000

  Atom        21          22          23          24          25          26          27          28          29          30
 IAtWgt=          16           1           1          16           1           1          16           1           1          16
 AtmWgt=  15.9949146   1.0078250   1.0078250  15.9949146   1.0078250   1.0078250  15.9949146   1.0078250   1.0078250  15.9949146
 NucSpn=           0           1           1           0           1           1           0           1           1           0
 AtZEff=   0.0000000   0.0000000   0.0000000   0.0000000   0.0000000   0.0000000   0.0000000   0.0000000   0.0000000   0.0000000
 NQMom=    0.0000000   0.0000000   0.0000000   0.0000000   0.0000000   0.0000000   0.0000000   0.0000000   0.0000000   0.0000000
 NMagM=    0.0000000   2.7928460   2.7928460   0.0000000   2.7928460   2.7928460   0.0000000   2.7928460   2.7928460   0.0000000
 AtZNuc=   8.0000000   1.0000000   1.0000000   8.0000000   1.0000000   1.0000000   8.0000000   1.0000000   1.0000000   8.0000000

  Atom        31          32          33          34          35          36          37          38          39          40
 IAtWgt=           1           1          16           1           1          16           1           1          16           1
 AtmWgt=   1.0078250   1.0078250  15.9949146   1.0078250   1.0078250  15.9949146   1.0078250   1.0078250  15.9949146   1.0078250
 NucSpn=           1           1           0           1           1           0           1           1           0           1
 AtZEff=   0.0000000   0.0000000   0.0000000   0.0000000   0.0000000   0.0000000   0.0000000   0.0000000   0.0000000   0.0000000
 NQMom=    0.0000000   0.0000000   0.0000000   0.0000000   0.0000000   0.0000000   0.0000000   0.0000000   0.0000000   0.0000000
 NMagM=    2.7928460   2.7928460   0.0000000   2.7928460   2.7928460   0.0000000   2.7928460   2.7928460   0.0000000   2.7928460
 AtZNuc=   1.0000000   1.0000000   8.0000000   1.0000000   1.0000000   8.0000000   1.0000000   1.0000000   8.0000000   1.0000000

  Atom        41          42          43          44          45          46          47          48          49          50
 IAtWgt=           1          16           1           1          16           1           1          16           1           1
 AtmWgt=   1.0078250  15.9949146   1.0078250   1.0078250  15.9949146   1.0078250   1.0078250  15.9949146   1.0078250   1.0078250
 NucSpn=           1           0           1           1           0           1           1           0           1           1
 AtZEff=   0.0000000   0.0000000   0.0000000   0.0000000   0.0000000   0.0000000   0.0000000   0.0000000   0.0000000   0.0000000
 NQMom=    0.0000000   0.0000000   0.0000000   0.0000000   0.0000000   0.0000000   0.0000000   0.0000000   0.0000000   0.0000000
 NMagM=    2.7928460   0.0000000   2.7928460   2.7928460   0.0000000   2.7928460   2.7928460   0.0000000   2.7928460   2.7928460
 AtZNuc=   1.0000000   8.0000000   1.0000000   1.0000000   8.0000000   1.0000000   1.0000000   8.0000000   1.0000000   1.0000000
 Background charge distribution read from input stream:
 Point Charges:
 XYZ=    1.8875   -2.2481    4.0086 Q=   -0.8200 A=    0.0000 R=    0.0000 C=    0.0000
 XYZ=    2.2593   -1.4351    4.4567 Q=    0.4100 A=    0.0000 R=    0.0000 C=    0.0000
 XYZ=    2.6388   -2.8253    3.6887 Q=    0.4100 A=    0.0000 R=    0.0000 C=    0.0000
 XYZ=    5.8466    0.4672   -1.1733 Q=   -0.8200 A=    0.0000 R=    0.0000 C=    0.0000
 XYZ=    5.9083    0.7007   -2.1437 Q=    0.4100 A=    0.0000 R=    0.0000 C=    0.0000
 XYZ=    4.8851    0.4213   -0.9020 Q=    0.4100 A=    0.0000 R=    0.0000 C=    0.0000
 XYZ=    3.4649   -3.4603    2.6762 Q=   -0.8200 A=    0.0000 R=    0.0000 C=    0.0000
 XYZ=    4.1347   -3.0743    2.0418 Q=    0.4100 A=    0.0000 R=    0.0000 C=    0.0000
 XYZ=    2.7838   -3.9836    2.1641 Q=    0.4100 A=    0.0000 R=    0.0000 C=    0.0000
 XYZ=   -5.3142    3.6501    1.9733 Q=   -0.8200 A=    0.0000 R=    0.0000 C=    0.0000
 XYZ=   -5.9918    4.2728    1.5821 Q=    0.4100 A=    0.0000 R=    0.0000 C=    0.0000
 XYZ=   -5.7537    3.0647    2.6547 Q=    0.4100 A=    0.0000 R=    0.0000 C=    0.0000
 XYZ=   -0.6337    4.9976   -3.5719 Q=   -0.8200 A=    0.0000 R=    0.0000 C=    0.0000
 XYZ=   -1.1399    4.2944   -3.0726 Q=    0.4100 A=    0.0000 R=    0.0000 C=    0.0000
 XYZ=   -0.8558    5.8977   -3.1970 Q=    0.4100 A=    0.0000 R=    0.0000 C=    0.0000
 XYZ=   -4.0265    4.8393    3.5632 Q=   -0.8200 A=    0.0000 R=    0.0000 C=    0.0000
 XYZ=   -4.7945    5.2951    4.0131 Q=    0.4100 A=    0.0000 R=    0.0000 C=    0.0000
 XYZ=   -4.3730    4.2186    2.8598 Q=    0.4100 A=    0.0000 R=    0.0000 C=    0.0000
 XYZ=    1.9105    4.3097    1.8561 Q=   -0.8200 A=    0.0000 R=    0.0000 C=    0.0000
 XYZ=    1.6141    5.1574    1.4162 Q=    0.4100 A=    0.0000 R=    0.0000 C=    0.0000
 XYZ=    2.5898    3.8551    1.2799 Q=    0.4100 A=    0.0000 R=    0.0000 C=    0.0000
 XYZ=    3.7196    3.6047   -0.0178 Q=   -0.8200 A=    0.0000 R=    0.0000 C=    0.0000
 XYZ=    3.5456    2.9870   -0.7847 Q=    0.4100 A=    0.0000 R=    0.0000 C=    0.0000
 XYZ=    4.0302    4.4892   -0.3661 Q=    0.4100 A=    0.0000 R=    0.0000 C=    0.0000
 XYZ=   -6.0685    2.2259    3.8685 Q=   -0.8200 A=    0.0000 R=    0.0000 C=    0.0000
 XYZ=   -6.0008    2.1232    4.8609 Q=    0.4100 A=    0.0000 R=    0.0000 C=    0.0000
 XYZ=   -5.6747    1.4220    3.4226 Q=    0.4100 A=    0.0000 R=    0.0000 C=    0.0000
 XYZ=   -3.2868    1.0617   -6.5113 Q=   -0.8200 A=    0.0000 R=    0.0000 C=    0.0000
 XYZ=   -3.2022    0.9571   -5.5204 Q=    0.4100 A=    0.0000 R=    0.0000 C=    0.0000
 XYZ=   -2.3997    1.3163   -6.8965 Q=    0.4100 A=    0.0000 R=    0.0000 C=    0.0000
 XYZ=    5.6807   -0.6351    2.7011 Q=   -0.8200 A=    0.0000 R=    0.0000 C=    0.0000
 XYZ=    5.9181   -1.0247    3.5910 Q=    0.4100 A=    0.0000 R=    0.0000 C=    0.0000
 XYZ=    4.9845    0.0726    2.8220 Q=    0.4100 A=    0.0000 R=    0.0000 C=    0.0000
 XYZ=   -7.0111    0.0893    1.0298 Q=   -0.8200 A=    0.0000 R=    0.0000 C=    0.0000
 XYZ=   -6.5880    0.5732    0.2637 Q=    0.4100 A=    0.0000 R=    0.0000 C=    0.0000
 XYZ=   -6.4024    0.1232    1.8225 Q=    0.4100 A=    0.0000 R=    0.0000 C=    0.0000
 XYZ=   -5.6847    0.9298   -2.8431 Q=   -0.8200 A=    0.0000 R=    0.0000 C=    0.0000
 XYZ=   -6.1422    0.1103   -2.4980 Q=    0.4100 A=    0.0000 R=    0.0000 C=    0.0000
 XYZ=   -6.1595    1.2575   -3.6599 Q=    0.4100 A=    0.0000 R=    0.0000 C=    0.0000
 XYZ=    5.4053   -2.6892    1.5765 Q=   -0.8200 A=    0.0000 R=    0.0000 C=    0.0000
 XYZ=    5.4582   -1.7772    1.9834 Q=    0.4100 A=    0.0000 R=    0.0000 C=    0.0000
 XYZ=    6.0097   -2.7347    0.7811 Q=    0.4100 A=    0.0000 R=    0.0000 C=    0.0000
 XYZ=   -4.9065   -2.8678    1.1168 Q=   -0.8200 A=    0.0000 R=    0.0000 C=    0.0000
 XYZ=   -4.4819   -2.3635    1.8687 Q=    0.4100 A=    0.0000 R=    0.0000 C=    0.0000
 XYZ=   -4.6920   -3.8406    1.2048 Q=    0.4100 A=    0.0000 R=    0.0000 C=    0.0000
 XYZ=    3.2810   -5.9567    0.6129 Q=   -0.8200 A=    0.0000 R=    0.0000 C=    0.0000
 XYZ=    2.6833   -5.2331    0.9583 Q=    0.4100 A=    0.0000 R=    0.0000 C=    0.0000
 XYZ=    3.6742   -6.4598    1.3825 Q=    0.4100 A=    0.0000 R=    0.0000 C=    0.0000
 XYZ=   -4.1413    3.9711   -4.9762 Q=   -0.8200 A=    0.0000 R=    0.0000 C=    0.0000
 XYZ=   -4.0123    3.4425   -4.1371 Q=    0.4100 A=    0.0000 R=    0.0000 C=    0.0000
 XYZ=   -4.6204    3.4113   -5.6523 Q=    0.4100 A=    0.0000 R=    0.0000 C=    0.0000
 XYZ=    3.0606   -0.3564    4.9989 Q=   -0.8200 A=    0.0000 R=    0.0000 C=    0.0000
 XYZ=    3.7111   -1.0722    5.2529 Q=    0.4100 A=    0.0000 R=    0.0000 C=    0.0000
 XYZ=    3.5415    0.3743    4.5144 Q=    0.4100 A=    0.0000 R=    0.0000 C=    0.0000
 XYZ=   -0.6122    3.1280    5.9584 Q=   -0.8200 A=    0.0000 R=    0.0000 C=    0.0000
 XYZ=    0.1957    3.5114    5.5106 Q=    0.4100 A=    0.0000 R=    0.0000 C=    0.0000
 XYZ=   -0.3795    2.2453    6.3667 Q=    0.4100 A=    0.0000 R=    0.0000 C=    0.0000
 XYZ=    0.8386   -4.0549    5.0061 Q=   -0.8200 A=    0.0000 R=    0.0000 C=    0.0000
 XYZ=    1.2999   -3.2558    4.6206 Q=    0.4100 A=    0.0000 R=    0.0000 C=    0.0000
 XYZ=   -0.0292   -4.2002    4.5308 Q=    0.4100 A=    0.0000 R=    0.0000 C=    0.0000
 XYZ=   -5.1356    4.3949   -1.9239 Q=   -0.8200 A=    0.0000 R=    0.0000 C=    0.0000
 XYZ=   -4.9347    5.3745   -1.9164 Q=    0.4100 A=    0.0000 R=    0.0000 C=    0.0000
 XYZ=   -6.0505    4.2451   -2.2990 Q=    0.4100 A=    0.0000 R=    0.0000 C=    0.0000
 XYZ=    2.5510    4.8283    4.0543 Q=   -0.8200 A=    0.0000 R=    0.0000 C=    0.0000
 XYZ=    2.1935    4.5747    3.1554 Q=    0.4100 A=    0.0000 R=    0.0000 C=    0.0000
 XYZ=    2.1686    4.2191    4.7491 Q=    0.4100 A=    0.0000 R=    0.0000 C=    0.0000
 XYZ=    1.3256    6.1334    0.4629 Q=   -0.8200 A=    0.0000 R=    0.0000 C=    0.0000
 XYZ=    1.1532    7.0818    0.7290 Q=    0.4100 A=    0.0000 R=    0.0000 C=    0.0000
 XYZ=    0.5031    5.7505    0.0422 Q=    0.4100 A=    0.0000 R=    0.0000 C=    0.0000
 XYZ=   -2.8731    4.3865    5.5452 Q=   -0.8200 A=    0.0000 R=    0.0000 C=    0.0000
 XYZ=   -3.2793    4.4245    4.6321 Q=    0.4100 A=    0.0000 R=    0.0000 C=    0.0000
 XYZ=   -2.1069    3.7440    5.5426 Q=    0.4100 A=    0.0000 R=    0.0000 C=    0.0000
 XYZ=    2.0341    1.1088    6.3245 Q=   -0.8200 A=    0.0000 R=    0.0000 C=    0.0000
 XYZ=    2.4154    0.3327    5.8221 Q=    0.4100 A=    0.0000 R=    0.0000 C=    0.0000
 XYZ=    1.0401    1.0141    6.3797 Q=    0.4100 A=    0.0000 R=    0.0000 C=    0.0000
 XYZ=   -2.7508    6.7096    2.6265 Q=   -0.8200 A=    0.0000 R=    0.0000 C=    0.0000
 XYZ=   -3.3273    5.9230    2.8480 Q=    0.4100 A=    0.0000 R=    0.0000 C=    0.0000
 XYZ=   -3.2651    7.5534    2.7795 Q=    0.4100 A=    0.0000 R=    0.0000 C=    0.0000
 XYZ=   -7.6903    3.1850    0.1729 Q=   -0.8200 A=    0.0000 R=    0.0000 C=    0.0000
 XYZ=   -7.0137    2.5672   -0.2279 Q=    0.4100 A=    0.0000 R=    0.0000 C=    0.0000
 XYZ=   -8.1817    2.7119    0.9042 Q=    0.4100 A=    0.0000 R=    0.0000 C=    0.0000
 XYZ=    1.7545    3.4842    5.7949 Q=   -0.8200 A=    0.0000 R=    0.0000 C=    0.0000
 XYZ=    1.7904    3.8591    6.7213 Q=    0.4100 A=    0.0000 R=    0.0000 C=    0.0000
 XYZ=    1.8064    2.4864    5.8369 Q=    0.4100 A=    0.0000 R=    0.0000 C=    0.0000
 XYZ=   -4.4162   -2.8937    4.8010 Q=   -0.8200 A=    0.0000 R=    0.0000 C=    0.0000
 XYZ=   -3.8723   -2.4859    4.0676 Q=    0.4100 A=    0.0000 R=    0.0000 C=    0.0000
 XYZ=   -3.8102   -3.3594    5.4459 Q=    0.4100 A=    0.0000 R=    0.0000 C=    0.0000
 XYZ=   -0.2780    1.0857    7.0627 Q=   -0.8200 A=    0.0000 R=    0.0000 C=    0.0000
 XYZ=   -0.7776    0.2430    6.8619 Q=    0.4100 A=    0.0000 R=    0.0000 C=    0.0000
 XYZ=   -0.4004    1.3242    8.0261 Q=    0.4100 A=    0.0000 R=    0.0000 C=    0.0000
 XYZ=   -0.7418    5.9490    3.8642 Q=   -0.8200 A=    0.0000 R=    0.0000 C=    0.0000
 XYZ=   -1.5271    6.1009    3.2639 Q=    0.4100 A=    0.0000 R=    0.0000 C=    0.0000
 XYZ=   -0.9943    6.1716    4.8059 Q=    0.4100 A=    0.0000 R=    0.0000 C=    0.0000
 XYZ=   -1.6095   -0.9061    6.6354 Q=   -0.8200 A=    0.0000 R=    0.0000 C=    0.0000
 XYZ=   -0.9496   -1.6451    6.7716 Q=    0.4100 A=    0.0000 R=    0.0000 C=    0.0000
 XYZ=   -2.4280   -1.2683    6.1894 Q=    0.4100 A=    0.0000 R=    0.0000 C=    0.0000
 XYZ=    4.5080    1.2772    4.2085 Q=   -0.8200 A=    0.0000 R=    0.0000 C=    0.0000
 XYZ=    5.1814    1.0749    4.9196 Q=    0.4100 A=    0.0000 R=    0.0000 C=    0.0000
 XYZ=    4.5252    2.2555    4.0019 Q=    0.4100 A=    0.0000 R=    0.0000 C=    0.0000
 XYZ=    7.4347   -1.1181   -0.6291 Q=   -0.8200 A=    0.0000 R=    0.0000 C=    0.0000
 XYZ=    6.6280   -0.5741   -0.8600 Q=    0.4100 A=    0.0000 R=    0.0000 C=    0.0000
 XYZ=    7.1524   -2.0456   -0.3843 Q=    0.4100 A=    0.0000 R=    0.0000 C=    0.0000
 XYZ=    4.4677   -4.4861    4.6091 Q=   -0.8200 A=    0.0000 R=    0.0000 C=    0.0000
 XYZ=    4.0220   -4.0674    3.8179 Q=    0.4100 A=    0.0000 R=    0.0000 C=    0.0000
 XYZ=    4.4816   -3.8343    5.3674 Q=    0.4100 A=    0.0000 R=    0.0000 C=    0.0000
 XYZ=    1.6786    5.0404   -4.2874 Q=   -0.8200 A=    0.0000 R=    0.0000 C=    0.0000
 XYZ=    0.7063    4.9982   -4.0572 Q=    0.4100 A=    0.0000 R=    0.0000 C=    0.0000
 XYZ=    1.7933    4.9191   -5.2734 Q=    0.4100 A=    0.0000 R=    0.0000 C=    0.0000
 XYZ=   -6.7372   -1.1276   -2.0341 Q=   -0.8200 A=    0.0000 R=    0.0000 C=    0.0000
 XYZ=   -6.8071   -1.6028   -2.9113 Q=    0.4100 A=    0.0000 R=    0.0000 C=    0.0000
 XYZ=   -6.4455   -1.7728   -1.3279 Q=    0.4100 A=    0.0000 R=    0.0000 C=    0.0000
 XYZ=   -2.1989    5.3209   -5.3386 Q=   -0.8200 A=    0.0000 R=    0.0000 C=    0.0000
 XYZ=   -1.6437    5.1999   -4.5157 Q=    0.4100 A=    0.0000 R=    0.0000 C=    0.0000
 XYZ=   -3.0756    4.8544   -5.2206 Q=    0.4100 A=    0.0000 R=    0.0000 C=    0.0000
 XYZ=   -6.2009   -3.1829   -0.8396 Q=   -0.8200 A=    0.0000 R=    0.0000 C=    0.0000
 XYZ=   -5.5737   -2.9388   -0.1001 Q=    0.4100 A=    0.0000 R=    0.0000 C=    0.0000
 XYZ=   -6.2004   -4.1753   -0.9632 Q=    0.4100 A=    0.0000 R=    0.0000 C=    0.0000
 XYZ=    6.9160    1.8459    0.6625 Q=   -0.8200 A=    0.0000 R=    0.0000 C=    0.0000
 XYZ=    6.1852    2.4234    1.0264 Q=    0.4100 A=    0.0000 R=    0.0000 C=    0.0000
 XYZ=    6.5512    1.2663   -0.0662 Q=    0.4100 A=    0.0000 R=    0.0000 C=    0.0000
 XYZ=    5.4365    3.7143    1.5549 Q=   -0.8200 A=    0.0000 R=    0.0000 C=    0.0000
 XYZ=    5.0446    3.4924    2.4478 Q=    0.4100 A=    0.0000 R=    0.0000 C=    0.0000
 XYZ=    4.7027    3.7992    0.8808 Q=    0.4100 A=    0.0000 R=    0.0000 C=    0.0000
 XYZ=    6.3942   -3.7683    3.3237 Q=   -0.8200 A=    0.0000 R=    0.0000 C=    0.0000
 XYZ=    5.9743   -3.3791    2.5038 Q=    0.4100 A=    0.0000 R=    0.0000 C=    0.0000
 XYZ=    5.6936   -4.2244    3.8726 Q=    0.4100 A=    0.0000 R=    0.0000 C=    0.0000
 XYZ=   -7.6981   -2.2554    0.8238 Q=   -0.8200 A=    0.0000 R=    0.0000 C=    0.0000
 XYZ=   -7.1573   -2.7900    0.1744 Q=    0.4100 A=    0.0000 R=    0.0000 C=    0.0000
 XYZ=   -7.2911   -1.3480    0.9289 Q=    0.4100 A=    0.0000 R=    0.0000 C=    0.0000
 XYZ=   -0.7261    7.1532   -2.5384 Q=   -0.8200 A=    0.0000 R=    0.0000 C=    0.0000
 XYZ=    0.1217    7.6723   -2.6473 Q=    0.4100 A=    0.0000 R=    0.0000 C=    0.0000
 XYZ=   -0.7698    6.7766   -1.6131 Q=    0.4100 A=    0.0000 R=    0.0000 C=    0.0000
 XYZ=   -1.4412   -4.6032    4.1719 Q=   -0.8200 A=    0.0000 R=    0.0000 C=    0.0000
 XYZ=   -2.1153   -4.5176    4.9056 Q=    0.4100 A=    0.0000 R=    0.0000 C=    0.0000
 XYZ=   -1.4853   -5.5242    3.7846 Q=    0.4100 A=    0.0000 R=    0.0000 C=    0.0000
 XYZ=    0.5109   -6.3467    2.3239 Q=   -0.8200 A=    0.0000 R=    0.0000 C=    0.0000
 XYZ=    0.1404   -6.9068    1.5829 Q=    0.4100 A=    0.0000 R=    0.0000 C=    0.0000
 XYZ=    1.2147   -6.8629    2.8120 Q=    0.4100 A=    0.0000 R=    0.0000 C=    0.0000
 XYZ=   -7.0905    5.0208    1.4436 Q=   -0.8200 A=    0.0000 R=    0.0000 C=    0.0000
 XYZ=   -7.3662    4.7404    2.3631 Q=    0.4100 A=    0.0000 R=    0.0000 C=    0.0000
 XYZ=   -7.3903    4.3337    0.7817 Q=    0.4100 A=    0.0000 R=    0.0000 C=    0.0000
 XYZ=    3.6526   -1.0745   -7.8115 Q=   -0.8200 A=    0.0000 R=    0.0000 C=    0.0000
 XYZ=    3.7581   -0.2560   -8.3764 Q=    0.4100 A=    0.0000 R=    0.0000 C=    0.0000
 XYZ=    2.7918   -1.0213   -7.3053 Q=    0.4100 A=    0.0000 R=    0.0000 C=    0.0000
 XYZ=   -1.6173    7.8370    0.9894 Q=   -0.8200 A=    0.0000 R=    0.0000 C=    0.0000
 XYZ=   -2.1613    7.4359    1.7265 Q=    0.4100 A=    0.0000 R=    0.0000 C=    0.0000
 XYZ=   -2.0124    8.7166    0.7244 Q=    0.4100 A=    0.0000 R=    0.0000 C=    0.0000
 XYZ=    5.1379   -6.1034   -0.9279 Q=   -0.8200 A=    0.0000 R=    0.0000 C=    0.0000
 XYZ=    4.3397   -5.8490   -0.3819 Q=    0.4100 A=    0.0000 R=    0.0000 C=    0.0000
 XYZ=    4.8378   -6.4371   -1.8216 Q=    0.4100 A=    0.0000 R=    0.0000 C=    0.0000
 XYZ=   -1.2772    1.7761   -7.5703 Q=   -0.8200 A=    0.0000 R=    0.0000 C=    0.0000
 XYZ=   -1.0447    2.6329   -7.1099 Q=    0.4100 A=    0.0000 R=    0.0000 C=    0.0000
 XYZ=   -1.2429    1.9099   -8.5607 Q=    0.4100 A=    0.0000 R=    0.0000 C=    0.0000
 XYZ=    6.2436    1.0803   -3.4096 Q=   -0.8200 A=    0.0000 R=    0.0000 C=    0.0000
 XYZ=    6.2950    2.0406   -3.6841 Q=    0.4100 A=    0.0000 R=    0.0000 C=    0.0000
 XYZ=    6.4826    0.4982   -4.1868 Q=    0.4100 A=    0.0000 R=    0.0000 C=    0.0000
 XYZ=   -5.2002    2.3676   -6.5734 Q=   -0.8200 A=    0.0000 R=    0.0000 C=    0.0000
 XYZ=   -5.4636    2.4769   -7.5318 Q=    0.4100 A=    0.0000 R=    0.0000 C=    0.0000
 XYZ=   -4.3819    1.7956   -6.5158 Q=    0.4100 A=    0.0000 R=    0.0000 C=    0.0000
 XYZ=    4.6095    3.6526    3.8037 Q=   -0.8200 A=    0.0000 R=    0.0000 C=    0.0000
 XYZ=    5.2266    3.9565    4.5296 Q=    0.4100 A=    0.0000 R=    0.0000 C=    0.0000
 XYZ=    3.8626    4.3102    3.7042 Q=    0.4100 A=    0.0000 R=    0.0000 C=    0.0000
 XYZ=   -7.3961    4.1799    3.8351 Q=   -0.8200 A=    0.0000 R=    0.0000 C=    0.0000
 XYZ=   -6.9907    3.2679    3.8985 Q=    0.4100 A=    0.0000 R=    0.0000 C=    0.0000
 XYZ=   -6.7966    4.8429    4.2835 Q=    0.4100 A=    0.0000 R=    0.0000 C=    0.0000
 XYZ=   -4.6096    3.6059    6.8250 Q=   -0.8200 A=    0.0000 R=    0.0000 C=    0.0000
 XYZ=   -5.2643    4.3535    6.9362 Q=    0.4100 A=    0.0000 R=    0.0000 C=    0.0000
 XYZ=   -3.8671    3.8999    6.2231 Q=    0.4100 A=    0.0000 R=    0.0000 C=    0.0000
 XYZ=   -0.5828   -3.2201    6.7336 Q=   -0.8200 A=    0.0000 R=    0.0000 C=    0.0000
 XYZ=    0.0168   -3.6781    6.0773 Q=    0.4100 A=    0.0000 R=    0.0000 C=    0.0000
 XYZ=   -0.3310   -3.4934    7.6620 Q=    0.4100 A=    0.0000 R=    0.0000 C=    0.0000
 XYZ=    6.9603   -3.3540   -0.0052 Q=   -0.8200 A=    0.0000 R=    0.0000 C=    0.0000
 XYZ=    6.7053   -3.8553   -0.8321 Q=    0.4100 A=    0.0000 R=    0.0000 C=    0.0000
 XYZ=    7.3088   -3.9949    0.6789 Q=    0.4100 A=    0.0000 R=    0.0000 C=    0.0000
 XYZ=   -0.8892    4.2423   -6.9113 Q=   -0.8200 A=    0.0000 R=    0.0000 C=    0.0000
 XYZ=   -0.0046    4.1436   -6.4555 Q=    0.4100 A=    0.0000 R=    0.0000 C=    0.0000
 XYZ=   -1.4973    4.7958   -6.3423 Q=    0.4100 A=    0.0000 R=    0.0000 C=    0.0000
 XYZ=    1.3360    7.0660    3.5684 Q=   -0.8200 A=    0.0000 R=    0.0000 C=    0.0000
 XYZ=    2.1396    6.4987    3.7488 Q=    0.4100 A=    0.0000 R=    0.0000 C=    0.0000
 XYZ=    0.5079    6.5505    3.7886 Q=    0.4100 A=    0.0000 R=    0.0000 C=    0.0000
 XYZ=    4.3906   -2.3998    5.7919 Q=   -0.8200 A=    0.0000 R=    0.0000 C=    0.0000
 XYZ=    4.6930   -2.3065    6.7405 Q=    0.4100 A=    0.0000 R=    0.0000 C=    0.0000
 XYZ=    5.1314   -2.1278    5.1777 Q=    0.4100 A=    0.0000 R=    0.0000 C=    0.0000
 XYZ=    3.9470    3.6352   -6.3735 Q=   -0.8200 A=    0.0000 R=    0.0000 C=    0.0000
 XYZ=    4.9207    3.8339   -6.4854 Q=    0.4100 A=    0.0000 R=    0.0000 C=    0.0000
 XYZ=    3.8361    2.8293   -5.7920 Q=    0.4100 A=    0.0000 R=    0.0000 C=    0.0000
 XYZ=    4.9982    3.7955   -2.7192 Q=   -0.8200 A=    0.0000 R=    0.0000 C=    0.0000
 XYZ=    5.5411    4.4656   -2.2130 Q=    0.4100 A=    0.0000 R=    0.0000 C=    0.0000
 XYZ=    5.5367    3.4383   -3.4823 Q=    0.4100 A=    0.0000 R=    0.0000 C=    0.0000
 XYZ=    2.9265   -7.5636   -1.1367 Q=   -0.8200 A=    0.0000 R=    0.0000 C=    0.0000
 XYZ=    3.0471   -6.7767   -0.5314 Q=    0.4100 A=    0.0000 R=    0.0000 C=    0.0000
 XYZ=    3.5825   -7.5087   -1.8895 Q=    0.4100 A=    0.0000 R=    0.0000 C=    0.0000
 XYZ=   -4.6965    6.6361   -1.9963 Q=   -0.8200 A=    0.0000 R=    0.0000 C=    0.0000
 XYZ=   -3.9467    7.1308   -2.4358 Q=    0.4100 A=    0.0000 R=    0.0000 C=    0.0000
 XYZ=   -5.3160    7.2888   -1.5602 Q=    0.4100 A=    0.0000 R=    0.0000 C=    0.0000
 XYZ=    7.8758    0.5655    2.2785 Q=   -0.8200 A=    0.0000 R=    0.0000 C=    0.0000
 XYZ=    7.4242    0.9915    1.4945 Q=    0.4100 A=    0.0000 R=    0.0000 C=    0.0000
 XYZ=    7.2379   -0.0559    2.7334 Q=    0.4100 A=    0.0000 R=    0.0000 C=    0.0000
 XYZ=    5.1534   -2.0310   -6.3442 Q=   -0.8200 A=    0.0000 R=    0.0000 C=    0.0000
 XYZ=    4.5424   -1.6170   -7.0191 Q=    0.4100 A=    0.0000 R=    0.0000 C=    0.0000
 XYZ=    5.6397   -1.3110   -5.8491 Q=    0.4100 A=    0.0000 R=    0.0000 C=    0.0000
 XYZ=   -6.6738    2.0303   -4.7189 Q=   -0.8200 A=    0.0000 R=    0.0000 C=    0.0000
 XYZ=   -6.1230    2.1558   -5.5441 Q=    0.4100 A=    0.0000 R=    0.0000 C=    0.0000
 XYZ=   -7.6057    1.7745   -4.9759 Q=    0.4100 A=    0.0000 R=    0.0000 C=    0.0000
 XYZ=   -6.5711   -1.8608    4.1341 Q=   -0.8200 A=    0.0000 R=    0.0000 C=    0.0000
 XYZ=   -7.1618   -2.5308    3.6844 Q=    0.4100 A=    0.0000 R=    0.0000 C=    0.0000
 XYZ=   -5.8001   -2.3313    4.5634 Q=    0.4100 A=    0.0000 R=    0.0000 C=    0.0000
 XYZ=   -1.5410    4.2902    8.1255 Q=   -0.8200 A=    0.0000 R=    0.0000 C=    0.0000
 XYZ=   -1.9106    5.1447    7.7604 Q=    0.4100 A=    0.0000 R=    0.0000 C=    0.0000
 XYZ=   -1.3350    3.6670    7.3711 Q=    0.4100 A=    0.0000 R=    0.0000 C=    0.0000
 XYZ=   -2.8357   -4.0157    6.1068 Q=   -0.8200 A=    0.0000 R=    0.0000 C=    0.0000
 XYZ=   -1.9899   -3.5507    6.3685 Q=    0.4100 A=    0.0000 R=    0.0000 C=    0.0000
 XYZ=   -2.9620   -4.8254    6.6799 Q=    0.4100 A=    0.0000 R=    0.0000 C=    0.0000
 XYZ=    3.5718    6.0410   -0.8090 Q=   -0.8200 A=    0.0000 R=    0.0000 C=    0.0000
 XYZ=    2.7772    6.1131   -0.2061 Q=    0.4100 A=    0.0000 R=    0.0000 C=    0.0000
 XYZ=    3.3058    6.2851   -1.7416 Q=    0.4100 A=    0.0000 R=    0.0000 C=    0.0000
 XYZ=    2.4925   -5.6798    5.6460 Q=   -0.8200 A=    0.0000 R=    0.0000 C=    0.0000
 XYZ=    3.4562   -5.4531    5.5054 Q=    0.4100 A=    0.0000 R=    0.0000 C=    0.0000
 XYZ=    1.9288   -4.8787    5.4444 Q=    0.4100 A=    0.0000 R=    0.0000 C=    0.0000
 XYZ=    6.2387   -1.7047    4.5999 Q=   -0.8200 A=    0.0000 R=    0.0000 C=    0.0000
 XYZ=    6.8855   -1.3478    5.2739 Q=    0.4100 A=    0.0000 R=    0.0000 C=    0.0000
 XYZ=    6.5670   -2.5846    4.2564 Q=    0.4100 A=    0.0000 R=    0.0000 C=    0.0000
 XYZ=   -9.5249    0.0187    1.5901 Q=   -0.8200 A=    0.0000 R=    0.0000 C=    0.0000
 XYZ=   -8.5455    0.1920    1.4868 Q=    0.4100 A=    0.0000 R=    0.0000 C=    0.0000
 XYZ=   -9.8385   -0.5744    0.8485 Q=    0.4100 A=    0.0000 R=    0.0000 C=    0.0000
 XYZ=   -1.4768   -6.7660    3.4087 Q=   -0.8200 A=    0.0000 R=    0.0000 C=    0.0000
 XYZ=   -0.6235   -6.5384    2.9395 Q=    0.4100 A=    0.0000 R=    0.0000 C=    0.0000
 XYZ=   -1.3818   -7.6524    3.8619 Q=    0.4100 A=    0.0000 R=    0.0000 C=    0.0000
 XYZ=   -7.1864    3.9797   -3.3846 Q=   -0.8200 A=    0.0000 R=    0.0000 C=    0.0000
 XYZ=   -7.4861    4.6820   -4.0304 Q=    0.4100 A=    0.0000 R=    0.0000 C=    0.0000
 XYZ=   -6.9929    3.1326   -3.8796 Q=    0.4100 A=    0.0000 R=    0.0000 C=    0.0000
 XYZ=   -5.8595    1.7681    6.2990 Q=   -0.8200 A=    0.0000 R=    0.0000 C=    0.0000
 XYZ=   -5.9332    1.1687    7.0960 Q=    0.4100 A=    0.0000 R=    0.0000 C=    0.0000
 XYZ=   -5.3637    2.5990    6.5517 Q=    0.4100 A=    0.0000 R=    0.0000 C=    0.0000
 XYZ=    3.2035    1.9821    8.2409 Q=   -0.8200 A=    0.0000 R=    0.0000 C=    0.0000
 XYZ=    4.2008    2.0337    8.2947 Q=    0.4100 A=    0.0000 R=    0.0000 C=    0.0000
 XYZ=    2.9367    1.6028    7.3550 Q=    0.4100 A=    0.0000 R=    0.0000 C=    0.0000
 XYZ=    6.6807   -4.6677   -2.0994 Q=   -0.8200 A=    0.0000 R=    0.0000 C=    0.0000
 XYZ=    5.9802   -5.2695   -1.7157 Q=    0.4100 A=    0.0000 R=    0.0000 C=    0.0000
 XYZ=    7.5641   -5.1362   -2.0900 Q=    0.4100 A=    0.0000 R=    0.0000 C=    0.0000
 XYZ=    3.1277    6.3317   -3.1433 Q=   -0.8200 A=    0.0000 R=    0.0000 C=    0.0000
 XYZ=    4.0727    6.0688   -3.3379 Q=    0.4100 A=    0.0000 R=    0.0000 C=    0.0000
 XYZ=    2.5054    5.7519   -3.6693 Q=    0.4100 A=    0.0000 R=    0.0000 C=    0.0000
 XYZ=    6.0731   -3.9644   -5.5677 Q=   -0.8200 A=    0.0000 R=    0.0000 C=    0.0000
 XYZ=    6.6702   -3.7633   -4.7911 Q=    0.4100 A=    0.0000 R=    0.0000 C=    0.0000
 XYZ=    5.6269   -3.1227   -5.8719 Q=    0.4100 A=    0.0000 R=    0.0000 C=    0.0000
 XYZ=    0.5602    8.1448    1.4661 Q=   -0.8200 A=    0.0000 R=    0.0000 C=    0.0000
 XYZ=   -0.4231    8.1321    1.2842 Q=    0.4100 A=    0.0000 R=    0.0000 C=    0.0000
 XYZ=    0.7494    7.6432    2.3103 Q=    0.4100 A=    0.0000 R=    0.0000 C=    0.0000
 XYZ=    8.2128    0.2269   -2.2700 Q=   -0.8200 A=    0.0000 R=    0.0000 C=    0.0000
 XYZ=    7.4377    0.6492   -2.7398 Q=    0.4100 A=    0.0000 R=    0.0000 C=    0.0000
 XYZ=    7.8814   -0.2996   -1.4870 Q=    0.4100 A=    0.0000 R=    0.0000 C=    0.0000
 XYZ=   -9.0208   -0.8994   -2.0040 Q=   -0.8200 A=    0.0000 R=    0.0000 C=    0.0000
 XYZ=   -9.1907   -0.0485   -2.5013 Q=    0.4100 A=    0.0000 R=    0.0000 C=    0.0000
 XYZ=   -8.0352   -1.0369   -1.9057 Q=    0.4100 A=    0.0000 R=    0.0000 C=    0.0000
 XYZ=    7.2417   -3.0055   -3.7604 Q=   -0.8200 A=    0.0000 R=    0.0000 C=    0.0000
 XYZ=    8.0716   -2.5679   -3.4143 Q=    0.4100 A=    0.0000 R=    0.0000 C=    0.0000
 XYZ=    6.9162   -3.6766   -3.0943 Q=    0.4100 A=    0.0000 R=    0.0000 C=    0.0000
 XYZ=   -6.7360    7.4408    1.3302 Q=   -0.8200 A=    0.0000 R=    0.0000 C=    0.0000
 XYZ=   -6.8514    6.4504    1.2536 Q=    0.4100 A=    0.0000 R=    0.0000 C=    0.0000
 XYZ=   -6.7646    7.7061    2.2940 Q=    0.4100 A=    0.0000 R=    0.0000 C=    0.0000
 XYZ=   -2.6294    6.1298    7.0983 Q=   -0.8200 A=    0.0000 R=    0.0000 C=    0.0000
 XYZ=   -2.6783    5.4337    6.3820 Q=    0.4100 A=    0.0000 R=    0.0000 C=    0.0000
 XYZ=   -3.5483    6.3142    7.4470 Q=    0.4100 A=    0.0000 R=    0.0000 C=    0.0000
 XYZ=    6.7440   -0.9289   -5.1683 Q=   -0.8200 A=    0.0000 R=    0.0000 C=    0.0000
 XYZ=    7.3223   -0.8612   -5.9814 Q=    0.4100 A=    0.0000 R=    0.0000 C=    0.0000
 XYZ=    6.9251   -1.7945   -4.7016 Q=    0.4100 A=    0.0000 R=    0.0000 C=    0.0000
 XYZ=   -5.7760   -4.4794    3.5060 Q=   -0.8200 A=    0.0000 R=    0.0000 C=    0.0000
 XYZ=   -6.6398   -4.0986    3.1761 Q=    0.4100 A=    0.0000 R=    0.0000 C=    0.0000
 XYZ=   -5.3213   -3.8120    4.0958 Q=    0.4100 A=    0.0000 R=    0.0000 C=    0.0000
 XYZ=   -6.0237    5.7965    4.6489 Q=   -0.8200 A=    0.0000 R=    0.0000 C=    0.0000
 XYZ=   -6.3928    6.6982    4.4235 Q=    0.4100 A=    0.0000 R=    0.0000 C=    0.0000
 XYZ=   -5.9494    5.7056    5.6420 Q=    0.4100 A=    0.0000 R=    0.0000 C=    0.0000
 XYZ=   -8.9909    3.4184   -1.8969 Q=   -0.8200 A=    0.0000 R=    0.0000 C=    0.0000
 XYZ=   -8.2530    3.6779   -2.5200 Q=    0.4100 A=    0.0000 R=    0.0000 C=    0.0000
 XYZ=   -8.6461    3.4074   -0.9583 Q=    0.4100 A=    0.0000 R=    0.0000 C=    0.0000
 XYZ=    1.5852    4.4147   -6.5749 Q=   -0.8200 A=    0.0000 R=    0.0000 C=    0.0000
 XYZ=    1.3368    4.7885   -7.4686 Q=    0.4100 A=    0.0000 R=    0.0000 C=    0.0000
 XYZ=    2.5766    4.2916   -6.5291 Q=    0.4100 A=    0.0000 R=    0.0000 C=    0.0000
 XYZ=   -4.1943    0.5386   -8.9707 Q=   -0.8200 A=    0.0000 R=    0.0000 C=    0.0000
 XYZ=   -4.5798   -0.3277   -9.2883 Q=    0.4100 A=    0.0000 R=    0.0000 C=    0.0000
 XYZ=   -3.8687    0.4340   -8.0310 Q=    0.4100 A=    0.0000 R=    0.0000 C=    0.0000
 XYZ=   -7.6658    0.3804    5.7503 Q=   -0.8200 A=    0.0000 R=    0.0000 C=    0.0000
 XYZ=   -7.4089   -0.2988    5.0627 Q=    0.4100 A=    0.0000 R=    0.0000 C=    0.0000
 XYZ=   -6.9110    1.0231    5.8821 Q=    0.4100 A=    0.0000 R=    0.0000 C=    0.0000
 XYZ=   -9.0637    2.3825    1.7777 Q=   -0.8200 A=    0.0000 R=    0.0000 C=    0.0000
 XYZ=   -9.3492    2.7768    2.6512 Q=    0.4100 A=    0.0000 R=    0.0000 C=    0.0000
 XYZ=   -9.4487    1.4643    1.6848 Q=    0.4100 A=    0.0000 R=    0.0000 C=    0.0000
 XYZ=   -2.8779    7.9645   -2.9847 Q=   -0.8200 A=    0.0000 R=    0.0000 C=    0.0000
 XYZ=   -3.1465    8.6956   -2.3575 Q=    0.4100 A=    0.0000 R=    0.0000 C=    0.0000
 XYZ=   -1.9303    7.7013   -2.8034 Q=    0.4100 A=    0.0000 R=    0.0000 C=    0.0000
 XYZ=    4.1054   -6.8874    2.6291 Q=   -0.8200 A=    0.0000 R=    0.0000 C=    0.0000
 XYZ=    3.2099   -7.1762    2.9677 Q=    0.4100 A=    0.0000 R=    0.0000 C=    0.0000
 XYZ=    4.6771   -6.6034    3.3988 Q=    0.4100 A=    0.0000 R=    0.0000 C=    0.0000
 XYZ=   -0.3577   -7.7557    0.6083 Q=   -0.8200 A=    0.0000 R=    0.0000 C=    0.0000
 XYZ=    0.2984   -8.1945   -0.0058 Q=    0.4100 A=    0.0000 R=    0.0000 C=    0.0000
 XYZ=   -1.2595   -7.7399    0.1764 Q=    0.4100 A=    0.0000 R=    0.0000 C=    0.0000
 XYZ=   -5.0254   -5.2679    1.3030 Q=   -0.8200 A=    0.0000 R=    0.0000 C=    0.0000
 XYZ=   -5.4087   -4.8722    2.1376 Q=    0.4100 A=    0.0000 R=    0.0000 C=    0.0000
 XYZ=   -4.3860   -5.9982    1.5435 Q=    0.4100 A=    0.0000 R=    0.0000 C=    0.0000
 XYZ=    7.4901   -5.0057    1.6371 Q=   -0.8200 A=    0.0000 R=    0.0000 C=    0.0000
 XYZ=    7.1613   -4.4793    2.4212 Q=    0.4100 A=    0.0000 R=    0.0000 C=    0.0000
 XYZ=    6.9759   -5.8608    1.5705 Q=    0.4100 A=    0.0000 R=    0.0000 C=    0.0000
 XYZ=   -5.9404   -5.6051   -0.8582 Q=   -0.8200 A=    0.0000 R=    0.0000 C=    0.0000
 XYZ=   -5.4038   -6.2743   -1.3722 Q=    0.4100 A=    0.0000 R=    0.0000 C=    0.0000
 XYZ=   -5.4651   -5.3790   -0.0079 Q=    0.4100 A=    0.0000 R=    0.0000 C=    0.0000
 XYZ=    2.1548   -7.2563    3.7740 Q=   -0.8200 A=    0.0000 R=    0.0000 C=    0.0000
 XYZ=    1.5131   -7.9994    3.9636 Q=    0.4100 A=    0.0000 R=    0.0000 C=    0.0000
 XYZ=    2.2144   -6.6558    4.5715 Q=    0.4100 A=    0.0000 R=    0.0000 C=    0.0000
 XYZ=    5.5926   -6.1946   -5.0974 Q=   -0.8200 A=    0.0000 R=    0.0000 C=    0.0000
 XYZ=    5.5454   -5.2000   -5.1899 Q=    0.4100 A=    0.0000 R=    0.0000 C=    0.0000
 XYZ=    5.9843   -6.5884   -5.9290 Q=    0.4100 A=    0.0000 R=    0.0000 C=    0.0000
 XYZ=   -7.7840   -3.4750    3.0526 Q=   -0.8200 A=    0.0000 R=    0.0000 C=    0.0000
 XYZ=   -7.8009   -3.0635    2.1413 Q=    0.4100 A=    0.0000 R=    0.0000 C=    0.0000
 XYZ=   -8.3543   -4.2964    3.0579 Q=    0.4100 A=    0.0000 R=    0.0000 C=    0.0000
 XYZ=    6.4493    3.1732   -4.4045 Q=   -0.8200 A=    0.0000 R=    0.0000 C=    0.0000
 XYZ=    7.2479    3.6244   -4.0062 Q=    0.4100 A=    0.0000 R=    0.0000 C=    0.0000
 XYZ=    6.3188    3.4937   -5.3428 Q=    0.4100 A=    0.0000 R=    0.0000 C=    0.0000
 XYZ=    6.0506   -6.8575    1.1480 Q=   -0.8200 A=    0.0000 R=    0.0000 C=    0.0000
 XYZ=    5.7620   -6.6987    0.2038 Q=    0.4100 A=    0.0000 R=    0.0000 C=    0.0000
 XYZ=    5.2538   -7.0908    1.7054 Q=    0.4100 A=    0.0000 R=    0.0000 C=    0.0000
 XYZ=    9.6321   -0.6879    0.3696 Q=   -0.8200 A=    0.0000 R=    0.0000 C=    0.0000
 XYZ=    9.4821   -0.3670    1.3047 Q=    0.4100 A=    0.0000 R=    0.0000 C=    0.0000
 XYZ=    8.7522   -0.9040   -0.0537 Q=    0.4100 A=    0.0000 R=    0.0000 C=    0.0000
 XYZ=    4.9017   -6.9843   -2.9949 Q=   -0.8200 A=    0.0000 R=    0.0000 C=    0.0000
 XYZ=    5.6897   -7.5434   -2.7370 Q=    0.4100 A=    0.0000 R=    0.0000 C=    0.0000
 XYZ=    4.9980   -6.6913   -3.9461 Q=    0.4100 A=    0.0000 R=    0.0000 C=    0.0000
 XYZ=   -2.9969    7.6849   -5.2992 Q=   -0.8200 A=    0.0000 R=    0.0000 C=    0.0000
 XYZ=   -3.2641    7.8241   -4.3457 Q=    0.4100 A=    0.0000 R=    0.0000 C=    0.0000
 XYZ=   -2.7596    6.7241   -5.4420 Q=    0.4100 A=    0.0000 R=    0.0000 C=    0.0000
 XYZ=    1.1373   -8.9012   -0.8422 Q=   -0.8200 A=    0.0000 R=    0.0000 C=    0.0000
 XYZ=    1.9147   -8.2875   -0.9805 Q=    0.4100 A=    0.0000 R=    0.0000 C=    0.0000
 XYZ=    1.1281   -9.5949   -1.5623 Q=    0.4100 A=    0.0000 R=    0.0000 C=    0.0000
 XYZ=    7.4902    4.9267    1.1934 Q=   -0.8200 A=    0.0000 R=    0.0000 C=    0.0000
 XYZ=    6.5791    4.5837    1.4221 Q=    0.4100 A=    0.0000 R=    0.0000 C=    0.0000
 XYZ=    8.1238    4.1579    1.1072 Q=    0.4100 A=    0.0000 R=    0.0000 C=    0.0000
 XYZ=   -3.4654   -7.1286    1.8637 Q=   -0.8200 A=    0.0000 R=    0.0000 C=    0.0000
 XYZ=   -2.6617   -6.8752    2.4022 Q=    0.4100 A=    0.0000 R=    0.0000 C=    0.0000
 XYZ=   -3.1723   -7.5552    1.0080 Q=    0.4100 A=    0.0000 R=    0.0000 C=    0.0000
 XYZ=   -2.5666   -7.6264   -0.4073 Q=   -0.8200 A=    0.0000 R=    0.0000 C=    0.0000
 XYZ=   -2.5192   -8.6253   -0.4016 Q=    0.4100 A=    0.0000 R=    0.0000 C=    0.0000
 XYZ=   -3.1889   -7.3264   -1.1304 Q=    0.4100 A=    0.0000 R=    0.0000 C=    0.0000
 XYZ=   -0.4508    3.6822   -9.2121 Q=   -0.8200 A=    0.0000 R=    0.0000 C=    0.0000
 XYZ=   -0.6158    3.9087   -8.2522 Q=    0.4100 A=    0.0000 R=    0.0000 C=    0.0000
 XYZ=   -1.2648    3.9002   -9.7506 Q=    0.4100 A=    0.0000 R=    0.0000 C=    0.0000
 XYZ=    6.1322    1.1134    5.9811 Q=   -0.8200 A=    0.0000 R=    0.0000 C=    0.0000
 XYZ=    6.9495    1.4877    5.5429 Q=    0.4100 A=    0.0000 R=    0.0000 C=    0.0000
 XYZ=    5.9182    1.6477    6.7989 Q=    0.4100 A=    0.0000 R=    0.0000 C=    0.0000
 XYZ=    9.0208    2.9989    1.0687 Q=   -0.8200 A=    0.0000 R=    0.0000 C=    0.0000
 XYZ=    9.3462    2.5858    1.9193 Q=    0.4100 A=    0.0000 R=    0.0000 C=    0.0000
 XYZ=    8.1628    2.5647    0.7941 Q=    0.4100 A=    0.0000 R=    0.0000 C=    0.0000
 XYZ=    2.1016    4.1937    8.0704 Q=   -0.8200 A=    0.0000 R=    0.0000 C=    0.0000
 XYZ=    1.3282    4.1489    8.7028 Q=    0.4100 A=    0.0000 R=    0.0000 C=    0.0000
 XYZ=    2.5921    3.3223    8.0814 Q=    0.4100 A=    0.0000 R=    0.0000 C=    0.0000
 XYZ=   -5.7258    8.2327   -0.6999 Q=   -0.8200 A=    0.0000 R=    0.0000 C=    0.0000
 XYZ=   -6.2873    8.8534   -1.2471 Q=    0.4100 A=    0.0000 R=    0.0000 C=    0.0000
 XYZ=   -6.2439    7.9336    0.1016 Q=    0.4100 A=    0.0000 R=    0.0000 C=    0.0000
 XYZ=   -3.3967    3.2155    9.0026 Q=   -0.8200 A=    0.0000 R=    0.0000 C=    0.0000
 XYZ=   -2.5085    3.6395    8.8258 Q=    0.4100 A=    0.0000 R=    0.0000 C=    0.0000
 XYZ=   -3.9217    3.1747    8.1524 Q=    0.4100 A=    0.0000 R=    0.0000 C=    0.0000
 XYZ=    5.8623    5.6926   -1.6558 Q=   -0.8200 A=    0.0000 R=    0.0000 C=    0.0000
 XYZ=    4.9741    5.9490   -1.2746 Q=    0.4100 A=    0.0000 R=    0.0000 C=    0.0000
 XYZ=    6.5655    6.3134   -1.3093 Q=    0.4100 A=    0.0000 R=    0.0000 C=    0.0000
 XYZ=   -4.0896   -7.1818   -2.0671 Q=   -0.8200 A=    0.0000 R=    0.0000 C=    0.0000
 XYZ=   -3.8400   -6.9701   -3.0121 Q=    0.4100 A=    0.0000 R=    0.0000 C=    0.0000
 XYZ=   -4.3466   -8.1458   -1.9983 Q=    0.4100 A=    0.0000 R=    0.0000 C=    0.0000
 XYZ=   -9.5302    1.3870   -2.8327 Q=   -0.8200 A=    0.0000 R=    0.0000 C=    0.0000
 XYZ=  -10.5281    1.3217   -2.8273 Q=    0.4100 A=    0.0000 R=    0.0000 C=    0.0000
 XYZ=   -9.2467    2.2006   -2.3250 Q=    0.4100 A=    0.0000 R=    0.0000 C=    0.0000
 XYZ=   -9.8428   -1.6234   -0.1175 Q=   -0.8200 A=    0.0000 R=    0.0000 C=    0.0000
 XYZ=   -9.5489   -1.2361   -0.9914 Q=    0.4100 A=    0.0000 R=    0.0000 C=    0.0000
 XYZ=   -9.0838   -2.1261    0.2964 Q=    0.4100 A=    0.0000 R=    0.0000 C=    0.0000
 XYZ=   -3.9594    8.6247    3.4680 Q=   -0.8200 A=    0.0000 R=    0.0000 C=    0.0000
 XYZ=   -3.2893    9.1658    3.9762 Q=    0.4100 A=    0.0000 R=    0.0000 C=    0.0000
 XYZ=   -4.3003    9.1581    2.6938 Q=    0.4100 A=    0.0000 R=    0.0000 C=    0.0000
 XYZ=    1.6267    8.0378   -2.9617 Q=   -0.8200 A=    0.0000 R=    0.0000 C=    0.0000
 XYZ=    1.2170    8.3080   -3.8329 Q=    0.4100 A=    0.0000 R=    0.0000 C=    0.0000
 XYZ=    2.3488    7.3660   -3.1271 Q=    0.4100 A=    0.0000 R=    0.0000 C=    0.0000
 XYZ=   -0.0479    1.4518    9.4772 Q=   -0.8200 A=    0.0000 R=    0.0000 C=    0.0000
 XYZ=    0.7588    0.9119    9.7178 Q=    0.4100 A=    0.0000 R=    0.0000 C=    0.0000
 XYZ=    0.1712    2.4253    9.5423 Q=    0.4100 A=    0.0000 R=    0.0000 C=    0.0000
 XYZ=    3.3751    3.2820   -8.6900 Q=   -0.8200 A=    0.0000 R=    0.0000 C=    0.0000
 XYZ=    3.5638    3.4513   -7.7227 Q=    0.4100 A=    0.0000 R=    0.0000 C=    0.0000
 XYZ=    3.5711    2.3253   -8.9054 Q=    0.4100 A=    0.0000 R=    0.0000 C=    0.0000
 XYZ=    9.1153   -1.8707   -2.9535 Q=   -0.8200 A=    0.0000 R=    0.0000 C=    0.0000
 XYZ=    8.6704   -0.9859   -2.8143 Q=    0.4100 A=    0.0000 R=    0.0000 C=    0.0000
 XYZ=    9.7220   -2.0636   -2.1822 Q=    0.4100 A=    0.0000 R=    0.0000 C=    0.0000
 XYZ=    7.3007   -0.8172    6.4701 Q=   -0.8200 A=    0.0000 R=    0.0000 C=    0.0000
 XYZ=    6.7579   -0.0048    6.2568 Q=    0.4100 A=    0.0000 R=    0.0000 C=    0.0000
 XYZ=    8.0933   -0.5535    7.0198 Q=    0.4100 A=    0.0000 R=    0.0000 C=    0.0000
 XYZ=    0.2486    3.7325    9.6273 Q=   -0.8200 A=    0.0000 R=    0.0000 C=    0.0000
 XYZ=    0.1823    4.3023   10.4464 Q=    0.4100 A=    0.0000 R=    0.0000 C=    0.0000
 XYZ=   -0.4485    4.0141    8.9679 Q=    0.4100 A=    0.0000 R=    0.0000 C=    0.0000
 XYZ=    5.1182   -2.5704   -9.2158 Q=   -0.8200 A=    0.0000 R=    0.0000 C=    0.0000
 XYZ=    5.2830   -3.4078   -8.6946 Q=    0.4100 A=    0.0000 R=    0.0000 C=    0.0000
 XYZ=    4.4924   -1.9790   -8.7072 Q=    0.4100 A=    0.0000 R=    0.0000 C=    0.0000
 XYZ=    0.9254    9.0773    4.6507 Q=   -0.8200 A=    0.0000 R=    0.0000 C=    0.0000
 XYZ=    1.0172    8.2741    4.0621 Q=    0.4100 A=    0.0000 R=    0.0000 C=    0.0000
 XYZ=    1.7720    9.2114    5.1659 Q=    0.4100 A=    0.0000 R=    0.0000 C=    0.0000
 XYZ=    3.7834    0.9121   -8.9647 Q=   -0.8200 A=    0.0000 R=    0.0000 C=    0.0000
 XYZ=    4.7731    0.9785   -9.0911 Q=    0.4100 A=    0.0000 R=    0.0000 C=    0.0000
 XYZ=    3.3689    0.5138   -9.7830 Q=    0.4100 A=    0.0000 R=    0.0000 C=    0.0000
 XYZ=   -6.1414    8.1002    3.7531 Q=   -0.8200 A=    0.0000 R=    0.0000 C=    0.0000
 XYZ=   -6.6917    8.8980    3.9996 Q=    0.4100 A=    0.0000 R=    0.0000 C=    0.0000
 XYZ=   -5.1728    8.3085    3.8893 Q=    0.4100 A=    0.0000 R=    0.0000 C=    0.0000
 XYZ=    5.5679   -4.6602   -8.0275 Q=   -0.8200 A=    0.0000 R=    0.0000 C=    0.0000
 XYZ=    5.7619   -4.3325   -7.1028 Q=    0.4100 A=    0.0000 R=    0.0000 C=    0.0000
 XYZ=    6.4050   -5.0270   -8.4334 Q=    0.4100 A=    0.0000 R=    0.0000 C=    0.0000
 XYZ=   -9.8849    4.5948    4.0199 Q=   -0.8200 A=    0.0000 R=    0.0000 C=    0.0000
 XYZ=  -10.0845    5.3327    3.3752 Q=    0.4100 A=    0.0000 R=    0.0000 C=    0.0000
 XYZ=   -8.8951    4.5119    4.1355 Q=    0.4100 A=    0.0000 R=    0.0000 C=    0.0000
 XYZ=   -3.9987   -7.0833   -4.6028 Q=   -0.8200 A=    0.0000 R=    0.0000 C=    0.0000
 XYZ=   -4.7400   -6.7336   -5.1758 Q=    0.4100 A=    0.0000 R=    0.0000 C=    0.0000
 XYZ=   -3.1725   -7.1910   -5.1559 Q=    0.4100 A=    0.0000 R=    0.0000 C=    0.0000
 XYZ=   -3.9119    9.7148   -1.6421 Q=   -0.8200 A=    0.0000 R=    0.0000 C=    0.0000
 XYZ=   -4.2875   10.4834   -2.1600 Q=    0.4100 A=    0.0000 R=    0.0000 C=    0.0000
 XYZ=   -4.6476    9.0790   -1.4086 Q=    0.4100 A=    0.0000 R=    0.0000 C=    0.0000
 XYZ=    1.2233   -6.0536    7.5763 Q=   -0.8200 A=    0.0000 R=    0.0000 C=    0.0000
 XYZ=    1.8993   -6.0050    6.8410 Q=    0.4100 A=    0.0000 R=    0.0000 C=    0.0000
 XYZ=    1.6028   -6.5697    8.3443 Q=    0.4100 A=    0.0000 R=    0.0000 C=    0.0000
 XYZ=    9.6738    2.0200    3.1980 Q=   -0.8200 A=    0.0000 R=    0.0000 C=    0.0000
 XYZ=    9.0462    1.3704    2.7689 Q=    0.4100 A=    0.0000 R=    0.0000 C=    0.0000
 XYZ=   10.4974    1.5390    3.4984 Q=    0.4100 A=    0.0000 R=    0.0000 C=    0.0000
 XYZ=   -2.6002    9.8806    0.3114 Q=   -0.8200 A=    0.0000 R=    0.0000 C=    0.0000
 XYZ=   -3.2467    9.9495    1.0712 Q=    0.4100 A=    0.0000 R=    0.0000 C=    0.0000
 XYZ=   -3.1014    9.8838   -0.5540 Q=    0.4100 A=    0.0000 R=    0.0000 C=    0.0000
 XYZ=   -9.0350    1.6899   -5.1364 Q=   -0.8200 A=    0.0000 R=    0.0000 C=    0.0000
 XYZ=   -9.2582    1.4785   -4.1848 Q=    0.4100 A=    0.0000 R=    0.0000 C=    0.0000
 XYZ=   -9.7610    1.3478   -5.7330 Q=    0.4100 A=    0.0000 R=    0.0000 C=    0.0000
 XYZ=    6.4740    4.2723    5.1787 Q=   -0.8200 A=    0.0000 R=    0.0000 C=    0.0000
 XYZ=    7.1831    4.9628    5.0355 Q=    0.4100 A=    0.0000 R=    0.0000 C=    0.0000
 XYZ=    6.9001    3.3737    5.2829 Q=    0.4100 A=    0.0000 R=    0.0000 C=    0.0000
 XYZ=    5.7460   -2.2153    7.6222 Q=   -0.8200 A=    0.0000 R=    0.0000 C=    0.0000
 XYZ=    6.4273   -1.7460    7.0604 Q=    0.4100 A=    0.0000 R=    0.0000 C=    0.0000
 XYZ=    6.1966   -2.9133    8.1788 Q=    0.4100 A=    0.0000 R=    0.0000 C=    0.0000
 XYZ=   -2.3373    1.6761  -10.2358 Q=   -0.8200 A=    0.0000 R=    0.0000 C=    0.0000
 XYZ=   -3.0668    1.1940   -9.7505 Q=    0.4100 A=    0.0000 R=    0.0000 C=    0.0000
 XYZ=   -2.3793    2.6510  -10.0172 Q=    0.4100 A=    0.0000 R=    0.0000 C=    0.0000
 XYZ=   -0.1596   -9.9010    1.9883 Q=   -0.8200 A=    0.0000 R=    0.0000 C=    0.0000
 XYZ=    0.4258  -10.5132    1.4567 Q=    0.4100 A=    0.0000 R=    0.0000 C=    0.0000
 XYZ=   -0.2999   -9.0506    1.4813 Q=    0.4100 A=    0.0000 R=    0.0000 C=    0.0000
 XYZ=    2.3254    1.2632   10.2231 Q=   -0.8200 A=    0.0000 R=    0.0000 C=    0.0000
 XYZ=    2.7873    1.5922    9.3994 Q=    0.4100 A=    0.0000 R=    0.0000 C=    0.0000
 XYZ=    2.3148    0.2632   10.2224 Q=    0.4100 A=    0.0000 R=    0.0000 C=    0.0000
 XYZ=    0.9895    6.7527    8.4228 Q=   -0.8200 A=    0.0000 R=    0.0000 C=    0.0000
 XYZ=    0.9523    6.6422    9.4159 Q=    0.4100 A=    0.0000 R=    0.0000 C=    0.0000
 XYZ=    1.4663    5.9723    8.0182 Q=    0.4100 A=    0.0000 R=    0.0000 C=    0.0000
 XYZ=   -5.5289    2.4082   -8.9978 Q=   -0.8200 A=    0.0000 R=    0.0000 C=    0.0000
 XYZ=   -5.2707    3.0794   -9.6926 Q=    0.4100 A=    0.0000 R=    0.0000 C=    0.0000
 XYZ=   -4.9729    1.5843   -9.1074 Q=    0.4100 A=    0.0000 R=    0.0000 C=    0.0000
 XYZ=   -6.1339    5.5358    7.1282 Q=   -0.8200 A=    0.0000 R=    0.0000 C=    0.0000
 XYZ=   -7.0596    5.7655    7.4288 Q=    0.4100 A=    0.0000 R=    0.0000 C=    0.0000
 XYZ=   -5.4709    5.9035    7.7804 Q=    0.4100 A=    0.0000 R=    0.0000 C=    0.0000
 XYZ=   -1.0798    7.8090    7.5205 Q=   -0.8200 A=    0.0000 R=    0.0000 C=    0.0000
 XYZ=   -1.7468    7.1237    7.2281 Q=    0.4100 A=    0.0000 R=    0.0000 C=    0.0000
 XYZ=   -0.2919    7.3522    7.9335 Q=    0.4100 A=    0.0000 R=    0.0000 C=    0.0000
 XYZ=    1.6816   10.2278    1.0232 Q=   -0.8200 A=    0.0000 R=    0.0000 C=    0.0000
 XYZ=    1.1066    9.4709    1.3339 Q=    0.4100 A=    0.0000 R=    0.0000 C=    0.0000
 XYZ=    1.7569   10.2017    0.0263 Q=    0.4100 A=    0.0000 R=    0.0000 C=    0.0000
 XYZ=    7.8535   -6.5368   -3.9094 Q=   -0.8200 A=    0.0000 R=    0.0000 C=    0.0000
 XYZ=    6.9544   -6.2914   -4.2719 Q=    0.4100 A=    0.0000 R=    0.0000 C=    0.0000
 XYZ=    8.4944   -6.6650   -4.6663 Q=    0.4100 A=    0.0000 R=    0.0000 C=    0.0000
 XYZ=   -6.3491    0.6033    8.2757 Q=   -0.8200 A=    0.0000 R=    0.0000 C=    0.0000
 XYZ=   -6.9025   -0.0747    7.7919 Q=    0.4100 A=    0.0000 R=    0.0000 C=    0.0000
 XYZ=   -5.8466    0.1564    9.0160 Q=    0.4100 A=    0.0000 R=    0.0000 C=    0.0000
 XYZ=    9.6403    2.0084   -2.7610 Q=   -0.8200 A=    0.0000 R=    0.0000 C=    0.0000
 XYZ=    9.1919    1.1157   -2.7165 Q=    0.4100 A=    0.0000 R=    0.0000 C=    0.0000
 XYZ=   10.0618    2.2141   -1.8778 Q=    0.4100 A=    0.0000 R=    0.0000 C=    0.0000
 XYZ=    7.9759    2.3951    4.9815 Q=   -0.8200 A=    0.0000 R=    0.0000 C=    0.0000
 XYZ=    8.5441    2.1523    4.1952 Q=    0.4100 A=    0.0000 R=    0.0000 C=    0.0000
 XYZ=    8.5605    2.5726    5.7731 Q=    0.4100 A=    0.0000 R=    0.0000 C=    0.0000
 XYZ=    5.5540    4.5973    7.5852 Q=   -0.8200 A=    0.0000 R=    0.0000 C=    0.0000
 XYZ=    6.4100    5.0749    7.7834 Q=    0.4100 A=    0.0000 R=    0.0000 C=    0.0000
 XYZ=    5.3926    4.5982    6.5983 Q=    0.4100 A=    0.0000 R=    0.0000 C=    0.0000
 XYZ=   -0.0785   -4.2368    8.8239 Q=   -0.8200 A=    0.0000 R=    0.0000 C=    0.0000
 XYZ=    0.4280   -5.0049    8.4319 Q=    0.4100 A=    0.0000 R=    0.0000 C=    0.0000
 XYZ=   -0.9878   -4.5451    9.1034 Q=    0.4100 A=    0.0000 R=    0.0000 C=    0.0000
 XYZ=    9.4203   -5.6400    0.3257 Q=   -0.8200 A=    0.0000 R=    0.0000 C=    0.0000
 XYZ=    8.7009   -5.3076    0.9358 Q=    0.4100 A=    0.0000 R=    0.0000 C=    0.0000
 XYZ=    9.0806   -5.6516   -0.6148 Q=    0.4100 A=    0.0000 R=    0.0000 C=    0.0000
 XYZ=   -3.5772    1.4109   10.3932 Q=   -0.8200 A=    0.0000 R=    0.0000 C=    0.0000
 XYZ=   -4.0347    1.6261   11.2560 Q=    0.4100 A=    0.0000 R=    0.0000 C=    0.0000
 XYZ=   -3.6067    2.2095    9.7920 Q=    0.4100 A=    0.0000 R=    0.0000 C=    0.0000
 XYZ=    1.9861    9.8868   -1.2409 Q=   -0.8200 A=    0.0000 R=    0.0000 C=    0.0000
 XYZ=    2.8647   10.2994   -1.4813 Q=    0.4100 A=    0.0000 R=    0.0000 C=    0.0000
 XYZ=    1.8444    9.0619   -1.7881 Q=    0.4100 A=    0.0000 R=    0.0000 C=    0.0000
 XYZ=    6.2338    4.0301   -6.7143 Q=   -0.8200 A=    0.0000 R=    0.0000 C=    0.0000
 XYZ=    6.8879    4.7529   -6.4915 Q=    0.4100 A=    0.0000 R=    0.0000 C=    0.0000
 XYZ=    6.5681    3.5084   -7.4993 Q=    0.4100 A=    0.0000 R=    0.0000 C=    0.0000
 XYZ=    5.4807    2.2719    8.0529 Q=   -0.8200 A=    0.0000 R=    0.0000 C=    0.0000
 XYZ=    6.2623    2.2001    8.6725 Q=    0.4100 A=    0.0000 R=    0.0000 C=    0.0000
 XYZ=    5.3864    3.2182    7.7436 Q=    0.4100 A=    0.0000 R=    0.0000 C=    0.0000
 XYZ=   -6.4734   -6.8802    4.0060 Q=   -0.8200 A=    0.0000 R=    0.0000 C=    0.0000
 XYZ=   -7.0992   -7.1173    3.2629 Q=    0.4100 A=    0.0000 R=    0.0000 C=    0.0000
 XYZ=   -6.1095   -5.9611    3.8549 Q=    0.4100 A=    0.0000 R=    0.0000 C=    0.0000
 XYZ=   -9.8732    0.6883    6.8631 Q=   -0.8200 A=    0.0000 R=    0.0000 C=    0.0000
 XYZ=   -9.9019    1.4502    7.5101 Q=    0.4100 A=    0.0000 R=    0.0000 C=    0.0000
 XYZ=   -9.0067    0.7070    6.3643 Q=    0.4100 A=    0.0000 R=    0.0000 C=    0.0000
 XYZ=   -4.5605   10.1067    1.7657 Q=   -0.8200 A=    0.0000 R=    0.0000 C=    0.0000
 XYZ=   -5.3454    9.7943    1.2305 Q=    0.4100 A=    0.0000 R=    0.0000 C=    0.0000
 XYZ=   -4.7734   10.9889    2.1857 Q=    0.4100 A=    0.0000 R=    0.0000 C=    0.0000
 XYZ=   -1.4471    0.5276   11.1208 Q=   -0.8200 A=    0.0000 R=    0.0000 C=    0.0000
 XYZ=   -2.4087    0.6791   10.8915 Q=    0.4100 A=    0.0000 R=    0.0000 C=    0.0000
 XYZ=   -0.8711    1.0978   10.5350 Q=    0.4100 A=    0.0000 R=    0.0000 C=    0.0000
 XYZ=  -10.9431   -1.3697   -3.1778 Q=   -0.8200 A=    0.0000 R=    0.0000 C=    0.0000
 XYZ=  -11.4884   -0.5320   -3.1485 Q=    0.4100 A=    0.0000 R=    0.0000 C=    0.0000
 XYZ=  -10.0888   -1.2288   -2.6774 Q=    0.4100 A=    0.0000 R=    0.0000 C=    0.0000
 XYZ=   -0.7358   -7.3776    7.1297 Q=   -0.8200 A=    0.0000 R=    0.0000 C=    0.0000
 XYZ=    0.0537   -6.7742    7.0173 Q=    0.4100 A=    0.0000 R=    0.0000 C=    0.0000
 XYZ=   -1.5723   -6.8303    7.1580 Q=    0.4100 A=    0.0000 R=    0.0000 C=    0.0000
 XYZ=   -7.3470   -7.3897    0.0488 Q=   -0.8200 A=    0.0000 R=    0.0000 C=    0.0000
 XYZ=   -8.1940   -7.5304   -0.4639 Q=    0.4100 A=    0.0000 R=    0.0000 C=    0.0000
 XYZ=   -6.8776   -6.5782   -0.2993 Q=    0.4100 A=    0.0000 R=    0.0000 C=    0.0000
 XYZ=    2.2990   -1.0092   10.0525 Q=   -0.8200 A=    0.0000 R=    0.0000 C=    0.0000
 XYZ=    1.7369   -1.8359   10.0773 Q=    0.4100 A=    0.0000 R=    0.0000 C=    0.0000
 XYZ=    3.2604   -1.2630    9.9459 Q=    0.4100 A=    0.0000 R=    0.0000 C=    0.0000
 XYZ=    0.4207   -9.0384    4.0127 Q=   -0.8200 A=    0.0000 R=    0.0000 C=    0.0000
 XYZ=   -0.4401   -8.9020    4.5031 Q=    0.4100 A=    0.0000 R=    0.0000 C=    0.0000
 XYZ=    0.2434   -9.5247    3.1570 Q=    0.4100 A=    0.0000 R=    0.0000 C=    0.0000
 XYZ=    8.2339   -0.6788   -6.8864 Q=   -0.8200 A=    0.0000 R=    0.0000 C=    0.0000
 XYZ=    8.5029    0.2794   -6.7875 Q=    0.4100 A=    0.0000 R=    0.0000 C=    0.0000
 XYZ=    9.0031   -1.2680   -6.6389 Q=    0.4100 A=    0.0000 R=    0.0000 C=    0.0000
 XYZ=  -11.8101    0.2171    2.6212 Q=   -0.8200 A=    0.0000 R=    0.0000 C=    0.0000
 XYZ=  -11.6605    1.1378    2.9818 Q=    0.4100 A=    0.0000 R=    0.0000 C=    0.0000
 XYZ=  -10.9421   -0.1589    2.2967 Q=    0.4100 A=    0.0000 R=    0.0000 C=    0.0000
 XYZ=   -8.9117    3.2084   -6.9540 Q=   -0.8200 A=    0.0000 R=    0.0000 C=    0.0000
 XYZ=   -8.4136    2.9078   -7.7674 Q=    0.4100 A=    0.0000 R=    0.0000 C=    0.0000
 XYZ=   -8.8313    2.5143   -6.2385 Q=    0.4100 A=    0.0000 R=    0.0000 C=    0.0000
 XYZ=    8.3202    4.0324   -3.4711 Q=   -0.8200 A=    0.0000 R=    0.0000 C=    0.0000
 XYZ=    8.8456    3.2376   -3.1673 Q=    0.4100 A=    0.0000 R=    0.0000 C=    0.0000
 XYZ=    8.7681    4.8687   -3.1548 Q=    0.4100 A=    0.0000 R=    0.0000 C=    0.0000
 XYZ=   -0.7182   -2.3198  -11.5327 Q=   -0.8200 A=    0.0000 R=    0.0000 C=    0.0000
 XYZ=   -0.7215   -3.2785  -11.8171 Q=    0.4100 A=    0.0000 R=    0.0000 C=    0.0000
 XYZ=   -0.6563   -2.2681  -10.5359 Q=    0.4100 A=    0.0000 R=    0.0000 C=    0.0000
 XYZ=    0.8530    8.6414   -5.1613 Q=   -0.8200 A=    0.0000 R=    0.0000 C=    0.0000
 XYZ=    0.0605    8.6606   -5.7709 Q=    0.4100 A=    0.0000 R=    0.0000 C=    0.0000
 XYZ=    1.6907    8.7251   -5.7010 Q=    0.4100 A=    0.0000 R=    0.0000 C=    0.0000
 XYZ=    4.5403   -1.4306    9.6271 Q=   -0.8200 A=    0.0000 R=    0.0000 C=    0.0000
 XYZ=    4.9481   -1.7924    8.7887 Q=    0.4100 A=    0.0000 R=    0.0000 C=    0.0000
 XYZ=    5.1465   -0.7400   10.0215 Q=    0.4100 A=    0.0000 R=    0.0000 C=    0.0000
 XYZ=    4.1315    5.0153    9.3354 Q=   -0.8200 A=    0.0000 R=    0.0000 C=    0.0000
 XYZ=    3.2559    4.9293    8.8601 Q=    0.4100 A=    0.0000 R=    0.0000 C=    0.0000
 XYZ=    4.8766    4.9885    8.6689 Q=    0.4100 A=    0.0000 R=    0.0000 C=    0.0000
 XYZ=   10.8622   -2.2772   -1.2571 Q=   -0.8200 A=    0.0000 R=    0.0000 C=    0.0000
 XYZ=   11.1400   -3.1539   -0.8643 Q=    0.4100 A=    0.0000 R=    0.0000 C=    0.0000
 XYZ=   10.3944   -1.7332   -0.5605 Q=    0.4100 A=    0.0000 R=    0.0000 C=    0.0000
 XYZ=   -2.9665   -6.0814    7.4331 Q=   -0.8200 A=    0.0000 R=    0.0000 C=    0.0000
 XYZ=   -3.6338   -6.8151    7.5609 Q=    0.4100 A=    0.0000 R=    0.0000 C=    0.0000
 XYZ=   -2.6663   -5.7447    8.3256 Q=    0.4100 A=    0.0000 R=    0.0000 C=    0.0000
 XYZ=    1.6653    3.6108  -10.5494 Q=   -0.8200 A=    0.0000 R=    0.0000 C=    0.0000
 XYZ=    0.8703    3.4499   -9.9645 Q=    0.4100 A=    0.0000 R=    0.0000 C=    0.0000
 XYZ=    2.5022    3.4519  -10.0255 Q=    0.4100 A=    0.0000 R=    0.0000 C=    0.0000
 XYZ=    8.8042   -5.6157   -2.1058 Q=   -0.8200 A=    0.0000 R=    0.0000 C=    0.0000
 XYZ=    9.7952   -5.6405   -2.2371 Q=    0.4100 A=    0.0000 R=    0.0000 C=    0.0000
 XYZ=    8.3538   -6.0527   -2.8843 Q=    0.4100 A=    0.0000 R=    0.0000 C=    0.0000
 XYZ=   -1.0700    9.1593   -6.5234 Q=   -0.8200 A=    0.0000 R=    0.0000 C=    0.0000
 XYZ=   -1.2773   10.1365   -6.4761 Q=    0.4100 A=    0.0000 R=    0.0000 C=    0.0000
 XYZ=   -1.6989    8.6561   -5.9308 Q=    0.4100 A=    0.0000 R=    0.0000 C=    0.0000
 XYZ=   -5.2244   -6.0883   -6.8132 Q=   -0.8200 A=    0.0000 R=    0.0000 C=    0.0000
 XYZ=   -4.8953   -5.6529   -7.6512 Q=    0.4100 A=    0.0000 R=    0.0000 C=    0.0000
 XYZ=   -6.1792   -6.3609   -6.9321 Q=    0.4100 A=    0.0000 R=    0.0000 C=    0.0000
 XYZ=    8.4036   -7.8254    0.5196 Q=   -0.8200 A=    0.0000 R=    0.0000 C=    0.0000
 XYZ=    8.9062   -6.9632    0.5830 Q=    0.4100 A=    0.0000 R=    0.0000 C=    0.0000
 XYZ=    7.4582   -7.6823    0.8123 Q=    0.4100 A=    0.0000 R=    0.0000 C=    0.0000
 XYZ=    7.9795    6.6841   -0.6015 Q=   -0.8200 A=    0.0000 R=    0.0000 C=    0.0000
 XYZ=    8.5843    7.4025   -0.2578 Q=    0.4100 A=    0.0000 R=    0.0000 C=    0.0000
 XYZ=    7.7101    6.0859    0.1532 Q=    0.4100 A=    0.0000 R=    0.0000 C=    0.0000
 XYZ=    6.1274    1.0754   -9.0952 Q=   -0.8200 A=    0.0000 R=    0.0000 C=    0.0000
 XYZ=    6.7768    1.8002   -8.8650 Q=    0.4100 A=    0.0000 R=    0.0000 C=    0.0000
 XYZ=    6.6258    0.2300   -9.2876 Q=    0.4100 A=    0.0000 R=    0.0000 C=    0.0000
 XYZ=   -4.8628   -8.4512    3.3885 Q=   -0.8200 A=    0.0000 R=    0.0000 C=    0.0000
 XYZ=   -4.2005   -7.9885    2.7992 Q=    0.4100 A=    0.0000 R=    0.0000 C=    0.0000
 XYZ=   -5.5535   -7.7952    3.6929 Q=    0.4100 A=    0.0000 R=    0.0000 C=    0.0000
 XYZ=   -0.7984    9.6715    6.0472 Q=   -0.8200 A=    0.0000 R=    0.0000 C=    0.0000
 XYZ=   -0.0928    9.4139    5.3871 Q=    0.4100 A=    0.0000 R=    0.0000 C=    0.0000
 XYZ=   -0.9008    8.9446    6.7263 Q=    0.4100 A=    0.0000 R=    0.0000 C=    0.0000
 XYZ=  -11.5075    2.2786    3.5781 Q=   -0.8200 A=    0.0000 R=    0.0000 C=    0.0000
 XYZ=  -12.4351    2.5414    3.8435 Q=    0.4100 A=    0.0000 R=    0.0000 C=    0.0000
 XYZ=  -11.0228    3.0785    3.2241 Q=    0.4100 A=    0.0000 R=    0.0000 C=    0.0000
 XYZ=   10.5285    2.7910   -0.7321 Q=   -0.8200 A=    0.0000 R=    0.0000 C=    0.0000
 XYZ=    9.9218    3.0447    0.0214 Q=    0.4100 A=    0.0000 R=    0.0000 C=    0.0000
 XYZ=   11.3748    3.3202   -0.6712 Q=    0.4100 A=    0.0000 R=    0.0000 C=    0.0000
 XYZ=   11.4251    0.7008    0.0848 Q=   -0.8200 A=    0.0000 R=    0.0000 C=    0.0000
 XYZ=   10.6788    0.0733    0.3071 Q=    0.4100 A=    0.0000 R=    0.0000 C=    0.0000
 XYZ=   11.0464    1.5639   -0.2494 Q=    0.4100 A=    0.0000 R=    0.0000 C=    0.0000
 XYZ=    0.6998   -2.7639   10.6781 Q=   -0.8200 A=    0.0000 R=    0.0000 C=    0.0000
 XYZ=    0.3809   -3.4683   10.0439 Q=    0.4100 A=    0.0000 R=    0.0000 C=    0.0000
 XYZ=   -0.0850   -2.3547   11.1436 Q=    0.4100 A=    0.0000 R=    0.0000 C=    0.0000
 XYZ=   -2.4973   10.1437    4.5915 Q=   -0.8200 A=    0.0000 R=    0.0000 C=    0.0000
 XYZ=   -1.8413    9.8718    5.2956 Q=    0.4100 A=    0.0000 R=    0.0000 C=    0.0000
 XYZ=   -3.2886   10.5772    5.0228 Q=    0.4100 A=    0.0000 R=    0.0000 C=    0.0000
 XYZ=   -5.3033   -0.3443   10.1194 Q=   -0.8200 A=    0.0000 R=    0.0000 C=    0.0000
 XYZ=   -4.6252    0.3874   10.1896 Q=    0.4100 A=    0.0000 R=    0.0000 C=    0.0000
 XYZ=   -5.9544   -0.2689   10.8747 Q=    0.4100 A=    0.0000 R=    0.0000 C=    0.0000
 XYZ=   -7.6955    2.3139    9.3452 Q=   -0.8200 A=    0.0000 R=    0.0000 C=    0.0000
 XYZ=   -7.0549    1.7173    8.8618 Q=    0.4100 A=    0.0000 R=    0.0000 C=    0.0000
 XYZ=   -8.5712    2.3234    8.8625 Q=    0.4100 A=    0.0000 R=    0.0000 C=    0.0000
 XYZ=   10.7651   -1.7327   -4.4266 Q=   -0.8200 A=    0.0000 R=    0.0000 C=    0.0000
 XYZ=   10.0262   -1.8298   -3.7598 Q=    0.4100 A=    0.0000 R=    0.0000 C=    0.0000
 XYZ=   11.6463   -1.7657   -3.9549 Q=    0.4100 A=    0.0000 R=    0.0000 C=    0.0000
 XYZ=    7.3714   -1.1831   -9.2358 Q=   -0.8200 A=    0.0000 R=    0.0000 C=    0.0000
 XYZ=    7.5798   -0.8951   -8.3011 Q=    0.4100 A=    0.0000 R=    0.0000 C=    0.0000
 XYZ=    6.4834   -1.6426   -9.2528 Q=    0.4100 A=    0.0000 R=    0.0000 C=    0.0000
 XYZ=    6.7769   -8.3479   -2.5707 Q=   -0.8200 A=    0.0000 R=    0.0000 C=    0.0000
 XYZ=    7.4487   -8.8052   -1.9879 Q=    0.4100 A=    0.0000 R=    0.0000 C=    0.0000
 XYZ=    7.2438   -7.6998   -3.1723 Q=    0.4100 A=    0.0000 R=    0.0000 C=    0.0000
 XYZ=    4.7342   -6.4709   -9.4158 Q=   -0.8200 A=    0.0000 R=    0.0000 C=    0.0000
 XYZ=    5.4681   -6.4041  -10.0917 Q=    0.4100 A=    0.0000 R=    0.0000 C=    0.0000
 XYZ=    4.8755   -5.7853   -8.7016 Q=    0.4100 A=    0.0000 R=    0.0000 C=    0.0000
 XYZ=  -11.6137   -2.7995    0.8199 Q=   -0.8200 A=    0.0000 R=    0.0000 C=    0.0000
 XYZ=  -10.8584   -2.3500    0.3430 Q=    0.4100 A=    0.0000 R=    0.0000 C=    0.0000
 XYZ=  -11.3270   -3.7115    1.1132 Q=    0.4100 A=    0.0000 R=    0.0000 C=    0.0000
 XYZ=   -1.6375   -8.5919    5.0451 Q=   -0.8200 A=    0.0000 R=    0.0000 C=    0.0000
 XYZ=   -1.3192   -8.1272    5.8715 Q=    0.4100 A=    0.0000 R=    0.0000 C=    0.0000
 XYZ=   -2.5791   -8.9013    5.1784 Q=    0.4100 A=    0.0000 R=    0.0000 C=    0.0000
 XYZ=   -1.3148   11.7826   -0.3623 Q=   -0.8200 A=    0.0000 R=    0.0000 C=    0.0000
 XYZ=   -1.8717   11.0267   -0.0180 Q=    0.4100 A=    0.0000 R=    0.0000 C=    0.0000
 XYZ=   -1.9116   12.5294   -0.6560 Q=    0.4100 A=    0.0000 R=    0.0000 C=    0.0000
 XYZ=   -4.0909    9.3611   -6.5474 Q=   -0.8200 A=    0.0000 R=    0.0000 C=    0.0000
 XYZ=   -3.7461    8.6045   -5.9918 Q=    0.4100 A=    0.0000 R=    0.0000 C=    0.0000
 XYZ=   -3.5215    9.4620   -7.3633 Q=    0.4100 A=    0.0000 R=    0.0000 C=    0.0000
 XYZ=   -4.6485    6.3876    8.6267 Q=   -0.8200 A=    0.0000 R=    0.0000 C=    0.0000
 XYZ=   -4.7215    7.2742    9.0835 Q=    0.4100 A=    0.0000 R=    0.0000 C=    0.0000
 XYZ=   -4.7324    5.6561    9.3034 Q=    0.4100 A=    0.0000 R=    0.0000 C=    0.0000
 XYZ=   -2.4259    4.2212  -10.2830 Q=   -0.8200 A=    0.0000 R=    0.0000 C=    0.0000
 XYZ=   -2.0359    5.1037  -10.5457 Q=    0.4100 A=    0.0000 R=    0.0000 C=    0.0000
 XYZ=   -3.3883    4.1886  -10.5529 Q=    0.4100 A=    0.0000 R=    0.0000 C=    0.0000
 XYZ=   -7.8886    2.8205   -9.0036 Q=   -0.8200 A=    0.0000 R=    0.0000 C=    0.0000
 XYZ=   -8.0887    3.7050   -9.4250 Q=    0.4100 A=    0.0000 R=    0.0000 C=    0.0000
 XYZ=   -6.9008    2.6642   -9.0099 Q=    0.4100 A=    0.0000 R=    0.0000 C=    0.0000
 XYZ=    2.9034    0.1406  -11.0024 Q=   -0.8200 A=    0.0000 R=    0.0000 C=    0.0000
 XYZ=    3.0020    0.9676  -11.5560 Q=    0.4100 A=    0.0000 R=    0.0000 C=    0.0000
 XYZ=    2.1909   -0.4406  -11.3957 Q=    0.4100 A=    0.0000 R=    0.0000 C=    0.0000
 XYZ=   -5.0210   -1.2690  -10.2293 Q=   -0.8200 A=    0.0000 R=    0.0000 C=    0.0000
 XYZ=   -5.6893   -1.9936  -10.0607 Q=    0.4100 A=    0.0000 R=    0.0000 C=    0.0000
 XYZ=   -4.3468   -1.5861  -10.8963 Q=    0.4100 A=    0.0000 R=    0.0000 C=    0.0000
 XYZ=   -4.8204    4.7503   10.1875 Q=   -0.8200 A=    0.0000 R=    0.0000 C=    0.0000
 XYZ=   -4.1376    4.0537    9.9669 Q=    0.4100 A=    0.0000 R=    0.0000 C=    0.0000
 XYZ=   -4.7340    5.0088   11.1497 Q=    0.4100 A=    0.0000 R=    0.0000 C=    0.0000
 XYZ=    8.9322    6.1453    2.9254 Q=   -0.8200 A=    0.0000 R=    0.0000 C=    0.0000
 XYZ=    9.6312    5.4633    3.1407 Q=    0.4100 A=    0.0000 R=    0.0000 C=    0.0000
 XYZ=    8.2725    5.7551    2.2829 Q=    0.4100 A=    0.0000 R=    0.0000 C=    0.0000
 XYZ=   -0.1700   -6.8242   -9.3671 Q=   -0.8200 A=    0.0000 R=    0.0000 C=    0.0000
 XYZ=    0.8250   -6.9244   -9.3627 Q=    0.4100 A=    0.0000 R=    0.0000 C=    0.0000
 XYZ=   -0.5662   -7.4005   -8.6522 Q=    0.4100 A=    0.0000 R=    0.0000 C=    0.0000
 XYZ=   -6.6326    9.4247   -2.6280 Q=   -0.8200 A=    0.0000 R=    0.0000 C=    0.0000
 XYZ=   -6.8608    8.8948   -3.4447 Q=    0.4100 A=    0.0000 R=    0.0000 C=    0.0000
 XYZ=   -6.1869   10.2782   -2.8982 Q=    0.4100 A=    0.0000 R=    0.0000 C=    0.0000
 XYZ=   -3.6464   -7.9734   -7.0714 Q=   -0.8200 A=    0.0000 R=    0.0000 C=    0.0000
 XYZ=   -4.3214   -7.2470   -6.9421 Q=    0.4100 A=    0.0000 R=    0.0000 C=    0.0000
 XYZ=   -3.9659   -8.8087   -6.6241 Q=    0.4100 A=    0.0000 R=    0.0000 C=    0.0000
 XYZ=   -4.4327   -9.3187   -5.2937 Q=   -0.8200 A=    0.0000 R=    0.0000 C=    0.0000
 XYZ=   -4.4976   -8.3949   -4.9166 Q=    0.4100 A=    0.0000 R=    0.0000 C=    0.0000
 XYZ=   -5.3399   -9.6256   -5.5817 Q=    0.4100 A=    0.0000 R=    0.0000 C=    0.0000
 XYZ=   -1.3940   -8.4498   -7.9482 Q=   -0.8200 A=    0.0000 R=    0.0000 C=    0.0000
 XYZ=   -1.7671   -8.8929   -8.7634 Q=    0.4100 A=    0.0000 R=    0.0000 C=    0.0000
 XYZ=   -2.1261   -8.3065   -7.2822 Q=    0.4100 A=    0.0000 R=    0.0000 C=    0.0000
 XYZ=   -4.8947   -4.9152   -8.8453 Q=   -0.8200 A=    0.0000 R=    0.0000 C=    0.0000
 XYZ=   -4.4569   -5.3892   -9.6092 Q=    0.4100 A=    0.0000 R=    0.0000 C=    0.0000
 XYZ=   -5.4709   -4.1774   -9.1970 Q=    0.4100 A=    0.0000 R=    0.0000 C=    0.0000
 XYZ=   -2.7118  -10.0848   -0.5565 Q=   -0.8200 A=    0.0000 R=    0.0000 C=    0.0000
 XYZ=   -3.4923   -9.7566   -1.0887 Q=    0.4100 A=    0.0000 R=    0.0000 C=    0.0000
 XYZ=   -2.1426  -10.6749   -1.1290 Q=    0.4100 A=    0.0000 R=    0.0000 C=    0.0000
 XYZ=   -1.3463   -1.7689   11.6659 Q=   -0.8200 A=    0.0000 R=    0.0000 C=    0.0000
 XYZ=   -0.9568   -1.8966   12.5780 Q=    0.4100 A=    0.0000 R=    0.0000 C=    0.0000
 XYZ=   -1.1393   -0.8460   11.3412 Q=    0.4100 A=    0.0000 R=    0.0000 C=    0.0000
 XYZ=  -11.1477    4.0765    5.7345 Q=   -0.8200 A=    0.0000 R=    0.0000 C=    0.0000
 XYZ=  -11.3314    3.0935    5.7227 Q=    0.4100 A=    0.0000 R=    0.0000 C=    0.0000
 XYZ=  -10.5914    4.3211    4.9403 Q=    0.4100 A=    0.0000 R=    0.0000 C=    0.0000
 XYZ=    9.6235    3.9092   -5.5501 Q=   -0.8200 A=    0.0000 R=    0.0000 C=    0.0000
 XYZ=    8.9857    3.9082   -4.7799 Q=    0.4100 A=    0.0000 R=    0.0000 C=    0.0000
 XYZ=   10.5620    3.8836   -5.2057 Q=    0.4100 A=    0.0000 R=    0.0000 C=    0.0000
 XYZ=    8.8139    6.1252   -2.7841 Q=   -0.8200 A=    0.0000 R=    0.0000 C=    0.0000
 XYZ=    7.9260    5.9842   -3.2220 Q=    0.4100 A=    0.0000 R=    0.0000 C=    0.0000
 XYZ=    8.6980    6.1337   -1.7908 Q=    0.4100 A=    0.0000 R=    0.0000 C=    0.0000
 XYZ=    0.4124   11.5059   -2.0314 Q=   -0.8200 A=    0.0000 R=    0.0000 C=    0.0000
 XYZ=    0.9209   10.6645   -1.8487 Q=    0.4100 A=    0.0000 R=    0.0000 C=    0.0000
 XYZ=   -0.3609   11.5716   -1.4008 Q=    0.4100 A=    0.0000 R=    0.0000 C=    0.0000
 XYZ=   -9.0708   -5.3645    2.9740 Q=   -0.8200 A=    0.0000 R=    0.0000 C=    0.0000
 XYZ=   -8.6356   -6.1926    2.6207 Q=    0.4100 A=    0.0000 R=    0.0000 C=    0.0000
 XYZ=   -9.5293   -5.5718    3.8382 Q=    0.4100 A=    0.0000 R=    0.0000 C=    0.0000
 XYZ=   -2.0472   -5.1405    9.5968 Q=   -0.8200 A=    0.0000 R=    0.0000 C=    0.0000
 XYZ=   -2.0017   -6.0397   10.0319 Q=    0.4100 A=    0.0000 R=    0.0000 C=    0.0000
 XYZ=   -2.5490   -4.5091   10.1880 Q=    0.4100 A=    0.0000 R=    0.0000 C=    0.0000
 XYZ=    5.0724   -3.3750  -11.3059 Q=   -0.8200 A=    0.0000 R=    0.0000 C=    0.0000
 XYZ=    5.2071   -3.0514  -10.3694 Q=    0.4100 A=    0.0000 R=    0.0000 C=    0.0000
 XYZ=    5.9034   -3.8320  -11.6234 Q=    0.4100 A=    0.0000 R=    0.0000 C=    0.0000
 XYZ=    7.6432    2.6092   -8.3732 Q=   -0.8200 A=    0.0000 R=    0.0000 C=    0.0000
 XYZ=    8.1910    3.2200   -8.9448 Q=    0.4100 A=    0.0000 R=    0.0000 C=    0.0000
 XYZ=    8.2446    2.1013   -7.7565 Q=    0.4100 A=    0.0000 R=    0.0000 C=    0.0000
 XYZ=   -4.5387   -9.4613   -1.9609 Q=   -0.8200 A=    0.0000 R=    0.0000 C=    0.0000
 XYZ=   -5.3289   -9.7129   -1.4020 Q=    0.4100 A=    0.0000 R=    0.0000 C=    0.0000
 XYZ=   -4.4418  -10.1127   -2.7135 Q=    0.4100 A=    0.0000 R=    0.0000 C=    0.0000
 XYZ=    9.1999    1.5994   -6.6990 Q=   -0.8200 A=    0.0000 R=    0.0000 C=    0.0000
 XYZ=    9.2785    2.5329   -6.3491 Q=    0.4100 A=    0.0000 R=    0.0000 C=    0.0000
 XYZ=    9.9142    1.0298   -6.2922 Q=    0.4100 A=    0.0000 R=    0.0000 C=    0.0000
 XYZ=   -6.4138   -6.9273    6.4738 Q=   -0.8200 A=    0.0000 R=    0.0000 C=    0.0000
 XYZ=   -6.4792   -6.9655    5.4766 Q=    0.4100 A=    0.0000 R=    0.0000 C=    0.0000
 XYZ=   -6.2537   -5.9829    6.7612 Q=    0.4100 A=    0.0000 R=    0.0000 C=    0.0000
 XYZ=   -0.0305   12.0084    1.6982 Q=   -0.8200 A=    0.0000 R=    0.0000 C=    0.0000
 XYZ=   -0.5609   11.9995    0.8505 Q=    0.4100 A=    0.0000 R=    0.0000 C=    0.0000
 XYZ=    0.6122   11.2423    1.6972 Q=    0.4100 A=    0.0000 R=    0.0000 C=    0.0000
 XYZ=    2.3151   -6.7985   -9.8100 Q=   -0.8200 A=    0.0000 R=    0.0000 C=    0.0000
 XYZ=    2.1262   -7.7720   -9.6807 Q=    0.4100 A=    0.0000 R=    0.0000 C=    0.0000
 XYZ=    3.2804   -6.6184   -9.6205 Q=    0.4100 A=    0.0000 R=    0.0000 C=    0.0000
 XYZ=   -4.8160   -2.5635   11.0640 Q=   -0.8200 A=    0.0000 R=    0.0000 C=    0.0000
 XYZ=   -5.0661   -1.8321   10.4295 Q=    0.4100 A=    0.0000 R=    0.0000 C=    0.0000
 XYZ=   -4.7884   -2.2015   11.9957 Q=    0.4100 A=    0.0000 R=    0.0000 C=    0.0000
 XYZ=   -2.3697    1.4580  -12.5722 Q=   -0.8200 A=    0.0000 R=    0.0000 C=    0.0000
 XYZ=   -2.2711    1.5760  -11.5841 Q=    0.4100 A=    0.0000 R=    0.0000 C=    0.0000
 XYZ=   -2.1458    0.5152  -12.8192 Q=    0.4100 A=    0.0000 R=    0.0000 C=    0.0000
 XYZ=   10.3896    4.2941    3.8160 Q=   -0.8200 A=    0.0000 R=    0.0000 C=    0.0000
 XYZ=   10.1079    3.3561    3.6143 Q=    0.4100 A=    0.0000 R=    0.0000 C=    0.0000
 XYZ=   10.2570    4.4799    4.7897 Q=    0.4100 A=    0.0000 R=    0.0000 C=    0.0000
 XYZ=  -11.5808    1.7630    5.8283 Q=   -0.8200 A=    0.0000 R=    0.0000 C=    0.0000
 XYZ=  -11.4892    1.6919    4.8350 Q=    0.4100 A=    0.0000 R=    0.0000 C=    0.0000
 XYZ=  -10.9075    1.1690    6.2685 Q=    0.4100 A=    0.0000 R=    0.0000 C=    0.0000
 XYZ=    1.4144   -1.4475  -11.8634 Q=   -0.8200 A=    0.0000 R=    0.0000 C=    0.0000
 XYZ=    2.0102   -2.2450  -11.9591 Q=    0.4100 A=    0.0000 R=    0.0000 C=    0.0000
 XYZ=    0.4586   -1.7389  -11.9027 Q=    0.4100 A=    0.0000 R=    0.0000 C=    0.0000
 XYZ=   -1.6603   12.1327    3.6465 Q=   -0.8200 A=    0.0000 R=    0.0000 C=    0.0000
 XYZ=   -1.0054   11.9784    2.9066 Q=    0.4100 A=    0.0000 R=    0.0000 C=    0.0000
 XYZ=   -1.9762   11.2525    4.0008 Q=    0.4100 A=    0.0000 R=    0.0000 C=    0.0000
 XYZ=   -2.3436  -11.0429    1.4674 Q=   -0.8200 A=    0.0000 R=    0.0000 C=    0.0000
 XYZ=   -1.5553  -10.6075    1.9022 Q=    0.4100 A=    0.0000 R=    0.0000 C=    0.0000
 XYZ=   -2.4393  -10.7015    0.5324 Q=    0.4100 A=    0.0000 R=    0.0000 C=    0.0000
 XYZ=    9.9562   -2.2696   -6.5239 Q=   -0.8200 A=    0.0000 R=    0.0000 C=    0.0000
 XYZ=   10.3067   -2.1072   -5.6015 Q=    0.4100 A=    0.0000 R=    0.0000 C=    0.0000
 XYZ=   10.3827   -3.0911   -6.9026 Q=    0.4100 A=    0.0000 R=    0.0000 C=    0.0000
 XYZ=   11.4608    1.5239   -4.1269 Q=   -0.8200 A=    0.0000 R=    0.0000 C=    0.0000
 XYZ=   10.6492    1.8423   -3.6370 Q=    0.4100 A=    0.0000 R=    0.0000 C=    0.0000
 XYZ=   12.0321    0.9832   -3.5093 Q=    0.4100 A=    0.0000 R=    0.0000 C=    0.0000
 XYZ=   10.6421    0.2195   -5.8345 Q=   -0.8200 A=    0.0000 R=    0.0000 C=    0.0000
 XYZ=   11.1081    0.8354   -5.1993 Q=    0.4100 A=    0.0000 R=    0.0000 C=    0.0000
 XYZ=   10.5042   -0.6689   -5.3965 Q=    0.4100 A=    0.0000 R=    0.0000 C=    0.0000
 XYZ=   11.5238   -4.6358   -0.0591 Q=   -0.8200 A=    0.0000 R=    0.0000 C=    0.0000
 XYZ=   10.7027   -5.1082    0.2615 Q=    0.4100 A=    0.0000 R=    0.0000 C=    0.0000
 XYZ=   12.0625   -5.2546   -0.6309 Q=    0.4100 A=    0.0000 R=    0.0000 C=    0.0000
 XYZ=    3.8877   11.1758    0.8805 Q=   -0.8200 A=    0.0000 R=    0.0000 C=    0.0000
 XYZ=    3.1644   10.5148    1.0805 Q=    0.4100 A=    0.0000 R=    0.0000 C=    0.0000
 XYZ=    3.4832   12.0791    0.7371 Q=    0.4100 A=    0.0000 R=    0.0000 C=    0.0000
 XYZ=    3.4836    2.2365   12.0766 Q=   -0.8200 A=    0.0000 R=    0.0000 C=    0.0000
 XYZ=    2.9654    1.7585   11.3673 Q=    0.4100 A=    0.0000 R=    0.0000 C=    0.0000
 XYZ=    2.8613    2.7964   12.6237 Q=    0.4100 A=    0.0000 R=    0.0000 C=    0.0000
 XYZ=   -2.5173    8.9555    9.1755 Q=   -0.8200 A=    0.0000 R=    0.0000 C=    0.0000
 XYZ=   -2.4512    9.9470    9.0629 Q=    0.4100 A=    0.0000 R=    0.0000 C=    0.0000
 XYZ=   -1.9143    8.5044    8.5175 Q=    0.4100 A=    0.0000 R=    0.0000 C=    0.0000
 XYZ=   -8.0790   -7.3543    2.3865 Q=   -0.8200 A=    0.0000 R=    0.0000 C=    0.0000
 XYZ=   -7.7348   -7.3677    1.4476 Q=    0.4100 A=    0.0000 R=    0.0000 C=    0.0000
 XYZ=   -8.8508   -7.9851    2.4676 Q=    0.4100 A=    0.0000 R=    0.0000 C=    0.0000
 XYZ=   -4.6673    3.9065  -10.7976 Q=   -0.8200 A=    0.0000 R=    0.0000 C=    0.0000
 XYZ=   -4.9402    4.7528  -11.2553 Q=    0.4100 A=    0.0000 R=    0.0000 C=    0.0000
 XYZ=   -4.9125    3.1240  -11.3700 Q=    0.4100 A=    0.0000 R=    0.0000 C=    0.0000
 XYZ=  -13.2566    0.6902    0.8266 Q=   -0.8200 A=    0.0000 R=    0.0000 C=    0.0000
 XYZ=  -13.7574    1.5217    1.0670 Q=    0.4100 A=    0.0000 R=    0.0000 C=    0.0000
 XYZ=  -12.5469    0.5192    1.5101 Q=    0.4100 A=    0.0000 R=    0.0000 C=    0.0000
 XYZ=  -10.9188   -5.0265    1.4615 Q=   -0.8200 A=    0.0000 R=    0.0000 C=    0.0000
 XYZ=  -10.2144   -5.1380    2.1626 Q=    0.4100 A=    0.0000 R=    0.0000 C=    0.0000
 XYZ=  -10.9394   -5.8382    0.8778 Q=    0.4100 A=    0.0000 R=    0.0000 C=    0.0000
 XYZ=   -6.3174   -9.4712   -0.3913 Q=   -0.8200 A=    0.0000 R=    0.0000 C=    0.0000
 XYZ=   -6.7244   -8.5604   -0.3219 Q=    0.4100 A=    0.0000 R=    0.0000 C=    0.0000
 XYZ=   -5.8138   -9.6760    0.4480 Q=    0.4100 A=    0.0000 R=    0.0000 C=    0.0000
 XYZ=  -11.5485   -2.8133   -4.9388 Q=   -0.8200 A=    0.0000 R=    0.0000 C=    0.0000
 XYZ=  -11.5936   -2.2550   -5.7672 Q=    0.4100 A=    0.0000 R=    0.0000 C=    0.0000
 XYZ=  -11.1760   -2.2669   -4.1886 Q=    0.4100 A=    0.0000 R=    0.0000 C=    0.0000
[...]
    40  H    0.002629  -0.000079  -0.000002   0.000000   0.000000   0.000000
    41  H   -0.000209  -0.000008   0.000013   0.000000  -0.000004   0.000000
    42  O    0.000002   0.000022   0.000000   0.000000   0.000000   0.000000
    43  H    0.000000   0.000000   0.000000   0.000000   0.000000   0.000000
    44  H    0.000000   0.000000   0.000000   0.000000   0.000000   0.000000
    45  O    0.000000   0.000000  -0.073888   0.003430   0.001816   0.000001
    46  H    0.000000   0.000000   0.000598  -0.000122   0.000010   0.000000
    47  H    0.000000   0.000000   0.043029  -0.002145   0.000244   0.000000
    48  O    0.000109   0.000027  -0.001072   0.000039   0.000209   0.000000
    49  H   -0.000004   0.000000  -0.000002   0.000000  -0.000001   0.000000
    50  H   -0.000043  -0.000020   0.000015   0.000005   0.000008   0.000000
              31         32         33         34         35         36
     1  C   -0.000044  -0.000027   0.001023  -0.000047  -0.000494  -0.002116
     2  H   -0.000003   0.000000   0.000003   0.000000  -0.000001   0.000000
     3  H    0.000000   0.000000   0.000000   0.000000   0.000000   0.000000
     4  C   -0.001305  -0.000111  -0.007033  -0.000099   0.001097   0.003231
     5  H    0.000000   0.000000   0.000004   0.000000  -0.000001  -0.000095
     6  C    0.004308   0.000007  -0.002882   0.000029   0.002940  -0.001953
     7  H   -0.000072   0.000000   0.000201   0.000043  -0.001135   0.000019
     8  O    0.002535   0.000152  -0.002368   0.000224  -0.000097  -0.000001
     9  O    0.034623   0.001441  -0.113568   0.000384   0.008932  -0.000001
    10  H    0.003162   0.000006   0.006471  -0.000022   0.002994   0.000000
    11  H   -0.005191  -0.000123  -0.004925   0.000078  -0.001503   0.000000
    12  O    0.000004   0.000000  -0.000003   0.000000   0.000001   0.000000
    13  H    0.000000   0.000000   0.000000   0.000000   0.000000   0.000000
    14  H   -0.000001   0.000000  -0.000005   0.000000  -0.000001   0.000000
    15  O    0.000000   0.000000   0.000002   0.000000   0.000000  -0.000420
    16  H    0.000000   0.000000   0.000000   0.000000   0.000000  -0.000013
    17  H    0.000000   0.000000   0.000001   0.000000   0.000000   0.000023
    18  O    0.000000   0.000000   0.000001   0.000000   0.000000  -0.002528
    19  H    0.000000   0.000000   0.000000   0.000000   0.000000   0.000187
    20  H    0.000000   0.000000   0.000000   0.000000   0.000000  -0.000108
    21  O   -0.000041   0.000001  -0.128133   0.003030   0.005744  -0.000047
    22  H    0.000003   0.000000   0.005607   0.000047  -0.000643   0.000024
    23  H    0.000029   0.000000   0.075159  -0.000370  -0.001236   0.000000
    24  O    0.000000   0.000000   0.000000   0.000000   0.000000  -0.051773
    25  H    0.000000   0.000000   0.000000   0.000000   0.000000   0.002981
    26  H    0.000000   0.000000   0.000000   0.000000   0.000000   0.000783
    27  O    0.000000   0.000000   0.000000   0.000000   0.000000  -0.000006
    28  H    0.000000   0.000000   0.000000   0.000000   0.000000   0.000000
    29  H    0.000000   0.000000   0.000000   0.000000   0.000000   0.000000
    30  O    0.162827   0.202528  -0.003985   0.000266   0.000703   0.000000
    31  H    0.238229  -0.004809  -0.002040  -0.000074   0.000398   0.000000
    32  H   -0.004809   0.168029   0.000236  -0.000030  -0.000060   0.000000
    33  O   -0.002040   0.000236   9.018644   0.201014   0.171983   0.000000
    34  H   -0.000074  -0.000030   0.201014   0.150978  -0.001473   0.000000
    35  H    0.000398  -0.000060   0.171983  -0.001473   0.193328   0.000000
    36  O    0.000000   0.000000   0.000000   0.000000   0.000000   8.888070
    37  H    0.000000   0.000000   0.000000   0.000000   0.000000   0.140476
    38  H    0.000000   0.000000   0.000000   0.000000   0.000000   0.200030
    39  O    0.000000   0.000000   0.000000   0.000000   0.000000   0.008376
    40  H    0.000000   0.000000   0.000000   0.000000   0.000000  -0.000713
    41  H    0.000000   0.000000   0.000000   0.000000   0.000000  -0.000977
    42  O    0.000000   0.000000  -0.002547   0.000012   0.000019  -0.002068
    43  H    0.000000   0.000000   0.000467   0.000007  -0.000026   0.000101
    44  H    0.000000   0.000000   0.000046   0.000000   0.000000   0.000032
    45  O    0.000000   0.000000   0.000000   0.000000   0.000000   0.000000
    46  H    0.000000   0.000000   0.000000   0.000000   0.000000   0.000000
    47  H    0.000000   0.000000   0.000000   0.000000   0.000000   0.000000
    48  O    0.000000   0.000000   0.000000   0.000000   0.000000  -0.000003
    49  H    0.000000   0.000000   0.000000   0.000000   0.000000   0.000000
    50  H    0.000000   0.000000   0.000000   0.000000   0.000000  -0.000006
              37         38         39         40         41         42
     1  C    0.001065   0.000174  -0.004797   0.000165  -0.000267  -0.000245
     2  H    0.000000   0.000000   0.000003   0.000000   0.000000   0.000000
     3  H    0.000000   0.000000  -0.000061   0.000000   0.000000   0.000000
     4  C    0.000542  -0.000276   0.002065  -0.000501   0.001066  -0.000861
     5  H    0.000013   0.000003   0.000781   0.000002  -0.000035   0.000004
     6  C   -0.001068  -0.000001   0.003477  -0.000035   0.000059  -0.000935
     7  H   -0.000003   0.000000   0.000000   0.000000   0.000000  -0.000123
     8  O    0.000000   0.000000  -0.000002   0.000000   0.000000   0.000050
     9  O    0.000000   0.000000   0.000000   0.000000   0.000000  -0.000058
    10  H    0.000000   0.000000   0.000000   0.000000   0.000000   0.000001
    11  H    0.000000   0.000000   0.000000   0.000000   0.000000   0.000000
    12  O    0.000000   0.000000   0.000000   0.000000   0.000000   0.000000
    13  H    0.000000   0.000000   0.000000   0.000000   0.000000   0.000000
    14  H    0.000000   0.000000   0.000000   0.000000   0.000000   0.000000
    15  O   -0.001211   0.000075  -0.002102   0.000486  -0.000276   0.000034
    16  H    0.001009  -0.000025  -0.000278  -0.000068  -0.000005  -0.000002
    17  H    0.000020  -0.000001   0.000042  -0.000003   0.000002  -0.000002
    18  O   -0.001080  -0.000162  -0.076931   0.000601  -0.000857  -0.000001
    19  H   -0.000155  -0.000005  -0.016509   0.000019   0.002215   0.000000
    20  H   -0.000034   0.000005   0.001891  -0.000433  -0.000018   0.000000
    21  O    0.000012   0.000004   0.000002   0.000000   0.000000  -0.062248
    22  H   -0.000004   0.000000   0.000000   0.000000   0.000000   0.002629
    23  H    0.000000   0.000000   0.000000   0.000000   0.000000  -0.000448
    24  O    0.029134  -0.002771  -0.032047   0.002203   0.001773  -0.000365
    25  H   -0.001055   0.000067   0.003291   0.002629  -0.000209   0.000002
    26  H   -0.000594   0.000058   0.001136  -0.000079  -0.000008   0.000022
    27  O   -0.000001   0.000000  -0.000370  -0.000002   0.000013   0.000000
    28  H    0.000000   0.000000   0.000001   0.000000   0.000000   0.000000
    29  H    0.000000   0.000000   0.000184   0.000000  -0.000004   0.000000
    30  O    0.000000   0.000000   0.000000   0.000000   0.000000   0.000000
    31  H    0.000000   0.000000   0.000000   0.000000   0.000000   0.000000
    32  H    0.000000   0.000000   0.000000   0.000000   0.000000   0.000000
    33  O    0.000000   0.000000   0.000000   0.000000   0.000000  -0.002547
    34  H    0.000000   0.000000   0.000000   0.000000   0.000000   0.000012
    35  H    0.000000   0.000000   0.000000   0.000000   0.000000   0.000019
    36  O    0.140476   0.200030   0.008376  -0.000713  -0.000977  -0.002068
    37  H    0.250755  -0.002241   0.009304  -0.000362  -0.000979   0.000074
    38  H   -0.002241   0.216656   0.006959  -0.000673  -0.000371   0.000012
    39  O    0.009304   0.006959   8.916158   0.198334   0.209924  -0.000002
    40  H   -0.000362  -0.000673   0.198334   0.176812  -0.007512   0.000000
    41  H   -0.000979  -0.000371   0.209924  -0.007512   0.185961   0.000000
    42  O    0.000074   0.000012  -0.000002   0.000000   0.000000   8.921292
    43  H   -0.000002   0.000000   0.000000   0.000000   0.000000   0.155130
    44  H    0.000000   0.000000   0.000000   0.000000   0.000000   0.213567
    45  O    0.000000   0.000000  -0.000004   0.000000   0.000000   0.000000
    46  H    0.000000   0.000000   0.000000   0.000000   0.000000   0.000000
    47  H    0.000000   0.000000   0.000000   0.000000   0.000000   0.000000
    48  O   -0.000007   0.000000   0.000122   0.000001  -0.000003   0.000000
    49  H    0.000000   0.000000   0.000001   0.000000   0.000000   0.000000
    50  H    0.000001   0.000000  -0.000017   0.000002   0.000000   0.000000
              43         44         45         46         47         48
     1  C    0.000002   0.000004  -0.013963   0.000914   0.002303   0.000785
     2  H    0.000000   0.000000   0.002230   0.000034  -0.000472  -0.000001
     3  H    0.000000   0.000000   0.000492   0.000004  -0.000044   0.000007
     4  C   -0.000124   0.000013  -0.004021  -0.000025  -0.001570  -0.002490
     5  H   -0.000001   0.000000   0.000002   0.000000  -0.000001   0.000001
     6  C    0.000024   0.000065   0.002698  -0.000080  -0.000093   0.000676
     7  H    0.000216   0.000001   0.000002   0.000000   0.000000   0.000000
     8  O   -0.000019   0.000000   0.000327   0.000002  -0.000007   0.000011
     9  O   -0.000009   0.000000  -0.000036   0.000000   0.000000   0.000000
    10  H    0.000000   0.000000   0.000007   0.000000   0.000000   0.000000
    11  H    0.000000   0.000000   0.000000   0.000000   0.000000   0.000000
    12  O    0.000000   0.000000  -0.102453   0.001509   0.004375   0.000004
    13  H    0.000000   0.000000  -0.002460   0.002104   0.000659   0.000000
    14  H    0.000000   0.000000   0.005832  -0.000005  -0.000184   0.000000
    15  O   -0.000003   0.000000   0.000072   0.000001   0.000023  -0.027583
    16  H    0.000000   0.000000   0.000000   0.000000   0.000000  -0.000593
    17  H    0.000000   0.000000  -0.000005   0.000000  -0.000001   0.000080
    18  O    0.000000   0.000000  -0.000355  -0.000001   0.000083  -0.009094
    19  H    0.000000   0.000000   0.000000   0.000000  -0.000001  -0.000014
    20  H    0.000000   0.000000   0.000026   0.000000  -0.000004  -0.002626
    21  O    0.030797   0.001465   0.000000   0.000000   0.000000   0.000000
    22  H    0.000392   0.000028   0.000000   0.000000   0.000000   0.000000
    23  H   -0.000929  -0.000004   0.000000   0.000000   0.000000   0.000000
    24  O    0.000013   0.000000   0.000000   0.000000   0.000000  -0.006981
    25  H    0.000000   0.000000   0.000000   0.000000   0.000000   0.000109
    26  H    0.000000   0.000000   0.000000   0.000000   0.000000   0.000027
    27  O    0.000000   0.000000  -0.073888   0.000598   0.043029  -0.001072
    28  H    0.000000   0.000000   0.003430  -0.000122  -0.002145   0.000039
    29  H    0.000000   0.000000   0.001816   0.000010   0.000244   0.000209
    30  O    0.000000   0.000000   0.000001   0.000000   0.000000   0.000000
    31  H    0.000000   0.000000   0.000000   0.000000   0.000000   0.000000
    32  H    0.000000   0.000000   0.000000   0.000000   0.000000   0.000000
    33  O    0.000467   0.000046   0.000000   0.000000   0.000000   0.000000
    34  H    0.000007   0.000000   0.000000   0.000000   0.000000   0.000000
    35  H   -0.000026   0.000000   0.000000   0.000000   0.000000   0.000000
    36  O    0.000101   0.000032   0.000000   0.000000   0.000000  -0.000003
    37  H   -0.000002   0.000000   0.000000   0.000000   0.000000  -0.000007
    38  H    0.000000   0.000000   0.000000   0.000000   0.000000   0.000000
    39  O    0.000000   0.000000  -0.000004   0.000000   0.000000   0.000122
    40  H    0.000000   0.000000   0.000000   0.000000   0.000000   0.000001
    41  H    0.000000   0.000000   0.000000   0.000000   0.000000  -0.000003
    42  O    0.155130   0.213567   0.000000   0.000000   0.000000   0.000000
    43  H    0.220820  -0.003554   0.000000   0.000000   0.000000   0.000000
    44  H   -0.003554   0.169446   0.000000   0.000000   0.000000   0.000000
    45  O    0.000000   0.000000   9.169061   0.176012   0.139831   0.000045
    46  H    0.000000   0.000000   0.176012   0.128786   0.000709   0.000000
    47  H    0.000000   0.000000   0.139831   0.000709   0.216282   0.000002
    48  O    0.000000   0.000000   0.000045   0.000000   0.000002   8.931311
    49  H    0.000000   0.000000   0.000000   0.000000   0.000000   0.200793
    50  H    0.000000   0.000000  -0.000001   0.000000   0.000000   0.144289
              49         50
     1  C   -0.000059  -0.000801
     2  H    0.000000   0.000000
     3  H    0.000000  -0.000001
     4  C    0.000159   0.001914
     5  H    0.000000   0.000000
     6  C   -0.000046  -0.000472
     7  H    0.000000   0.000000
     8  O    0.000000  -0.000003
     9  O    0.000000   0.000000
    10  H    0.000000   0.000000
    11  H    0.000000   0.000000
    12  O    0.000000   0.000000
    13  H    0.000000   0.000000
    14  H    0.000000   0.000000
    15  O   -0.000657   0.022691
    16  H   -0.000041  -0.001711
    17  H    0.000025   0.001118
    18  O    0.000187  -0.002199
    19  H    0.000000   0.000047
    20  H    0.000055  -0.000468
    21  O    0.000000   0.000000
    22  H    0.000000   0.000000
    23  H    0.000000   0.000000
    24  O    0.000194  -0.002416
    25  H   -0.000004  -0.000043
    26  H    0.000000  -0.000020
    27  O   -0.000002   0.000015
    28  H    0.000000   0.000005
    29  H   -0.000001   0.000008
    30  O    0.000000   0.000000
    31  H    0.000000   0.000000
    32  H    0.000000   0.000000
    33  O    0.000000   0.000000
    34  H    0.000000   0.000000
    35  H    0.000000   0.000000
    36  O    0.000000  -0.000006
    37  H    0.000000   0.000001
    38  H    0.000000   0.000000
    39  O    0.000001  -0.000017
    40  H    0.000000   0.000002
    41  H    0.000000   0.000000
    42  O    0.000000   0.000000
    43  H    0.000000   0.000000
    44  H    0.000000   0.000000
    45  O    0.000000  -0.000001
    46  H    0.000000   0.000000
    47  H    0.000000   0.000000
    48  O    0.200793   0.144289
    49  H    0.194270  -0.001960
    50  H   -0.001960   0.203629
 Mulliken charges:
               1
     1  C   -0.540358
     2  H    0.187759
     3  H    0.252925
     4  C    0.113261
     5  H    0.241122
     6  C    0.030033
     7  H    0.143581
     8  O   -0.464960
     9  O   -1.310120
    10  H    0.611731
    11  H    0.691616
    12  O   -1.048493
    13  H    0.597356
    14  H    0.474623
    15  O   -1.236624
    16  H    0.651623
    17  H    0.519586
    18  O   -1.285572
    19  H    0.614774
    20  H    0.627719
    21  O   -1.127644
    22  H    0.486981
    23  H    0.585553
    24  O   -1.244193
    25  H    0.646870
    26  H    0.680584
    27  O   -1.060260
    28  H    0.570714
    29  H    0.564921
    30  O   -1.204493
    31  H    0.567462
    32  H    0.632762
    33  O   -1.213373
    34  H    0.646002
    35  H    0.618532
    36  O   -1.181503
    37  H    0.576388
    38  H    0.582485
    39  O   -1.228931
    40  H    0.629127
    41  H    0.610507
    42  O   -1.222943
    43  H    0.596697
    44  H    0.618891
    45  O   -1.304698
    46  H    0.689552
    47  H    0.596982
    48  O   -1.228043
    49  H    0.607085
    50  H    0.636401
 Sum of Mulliken charges =   0.00000
 Mulliken charges with hydrogens summed into heavy atoms:
               1
     1  C   -0.099675
     4  C    0.354384
     6  C    0.173615
     8  O   -0.464960
     9  O   -0.006773
    12  O    0.023486
    15  O   -0.065415
    18  O   -0.043079
    21  O   -0.055110
    24  O    0.083261
    27  O    0.075376
    30  O   -0.004269
    33  O    0.051161
    36  O   -0.022630
    39  O    0.010703
    42  O   -0.007355
    45  O   -0.018164
    48  O    0.015443
 Electronic spatial extent (au):  <R**2>=          11264.0123
 Charge=              0.0000 electrons
 Dipole moment (field-independent basis, Debye):
    X=             -6.1630    Y=             -8.5720    Z=             -0.4954  Tot=             10.5692
 Quadrupole moment (field-independent basis, Debye-Ang):
   XX=            -77.9955   YY=           -173.8582   ZZ=           -109.3002
   XY=             -6.2214   XZ=              3.3414   YZ=              2.4699
 Traceless Quadrupole moment (field-independent basis, Debye-Ang):
   XX=             42.3891   YY=            -53.4736   ZZ=             11.0845
   XY=             -6.2214   XZ=              3.3414   YZ=              2.4699
 Octapole moment (field-independent basis, Debye-Ang**2):
  XXX=             62.6702  YYY=            125.3311  ZZZ=              6.8235  XYY=           -213.2105
  XXY=           -330.9248  XXZ=             43.9810  XZZ=            -42.1605  YZZ=            -56.3821
  YYZ=            -22.8078  XYZ=             22.9552
 Hexadecapole moment (field-independent basis, Debye-Ang**3):
 XXXX=          -4909.0235 YYYY=          -6147.0794 ZZZZ=           -762.6199 XXXY=           -334.6371
 XXXZ=            -29.5861 YYYX=          -1274.0513 YYYZ=             38.7607 ZZZX=            -94.9087
 ZZZY=            105.7244 XXYY=          -1842.7350 XXZZ=          -1041.3865 YYZZ=          -1140.3230
 XXYZ=             24.7973 YYXZ=             47.7373 ZZXY=            180.8117
 N-N= 1.152634407459D+03 E-N=-6.273110161121D+03  KE= 1.249752445177D+03
 Leave Link  601 at Fri Sep 14 18:21:07 2018, MaxMem=    33554432 cpu:         9.7
 (Enter /usr/local/pacerepov1/gaussian/G09D01LINDA/g09/l9999.exe)

 Test job not archived.
 1\1\GINC-RICH133-B13-4-L\SP\RLC-wPBE TD-FC\6-31+G(d)\C3H32O15\ROOT\14-
 Sep-2018\0\\#p td=(nstates=15)/6-31+g(d) lc-wpbe charge\\Acroleina in 
 Water\\0,1\C,0,0.485154,0.480443,-1.430142\H,0,1.461403,0.187773,-1.05
 5732\H,0,0.429244,0.878853,-2.437062\C,0,-0.605127,0.346563,-0.658432\
 H,0,-1.591686,0.632893,-1.012412\C,0,-0.508516,-0.199107,0.712798\H,0,
 -1.458487,-0.272107,1.272438\O,0,0.544883,-0.561317,1.236519\O,0,0.372
 79,-2.220127,2.03151\H,0,0.88392,-1.799627,1.28188\H,0,0.97538,-2.3379
 87,2.82083\O,0,3.59276,0.369933,-0.59791\H,0,3.30017,1.076543,-1.24224
 \H,0,2.85982,0.194053,0.05926\O,0,-1.8337,3.823903,-0.01419\H,0,-2.823
 42,3.687813,0.03092\H,0,-1.38541,3.236003,0.6592\O,0,-1.66618,3.159693
 ,-2.39899\H,0,-2.59324,3.083823,-2.7662\H,0,-1.71022,3.412483,-1.43246
 \O,0,-3.43309,-1.437827,2.41878\H,0,-3.14012,-1.194767,1.49405\H,0,-2.
 65371,-1.798187,2.93139\O,0,-4.14875,3.443283,-0.00069\H,0,-4.65188,3.
 923263,-0.71938\H,0,-4.54755,3.663783,0.88947\O,0,1.26366,2.927713,-2.
 79047\H,0,1.37786,3.875313,-3.08885\H,0,0.31575,2.778963,-2.5087\O,0,1
 .55885,-4.373277,1.63092\H,0,0.87105,-3.660557,1.49305\H,0,1.11595,-5.
 202207,1.97254\O,0,-1.55714,-2.583447,3.10833\H,0,-1.50024,-3.470697,3
 .56613\H,0,-0.66088,-2.342467,2.73594\O,0,-5.81456,1.675923,-0.54335\H
 ,0,-5.09793,2.356853,-0.39212\H,0,-5.85078,1.440283,-1.51455\O,0,-3.94
 052,2.669063,-2.96995\H,0,-4.52012,3.366753,-2.54886\H,0,-4.39096,1.77
 8523,-2.90594\O,0,-5.42614,-0.058177,3.15323\H,0,-4.51681,-0.397297,2.
 91199\H,0,-5.9662,-0.802717,3.54571\O,0,3.44867,2.268383,-1.97373\H,0,
 4.15059,2.901533,-2.29995\H,0,2.57408,2.489093,-2.40555\O,0,-0.8601,6.
 054653,-0.41187\H,0,-1.18071,6.801933,0.17023\H,0,-1.35671,5.217353,-0
 .18303\\Version=EM64L-G09RevD.01\State=1-A\HF=-1759.0277774\RMSD=4.372
 e-09\PG=C01 [X(C3H32O15)]\\@


 THEREFORE SHALL EVIL COME UPON THEE...
 THOU SHALT NOT KNOW FROM WHENCE IT RISETH...
 AND MISCHIEF SHALL FALL UPON THEE...
 THOU SHALT NOT BE ABLE TO PUT IT OFF...
 AND DESOLATION SHALL COME UPON THEE SUDDENLY...
 WHICH THOU SHALT NOT KNOW...

                                         ISAIAH 47.11
 Job cpu time:       0 days  2 hours 55 minutes 17.0 seconds.
 File lengths (MBytes):  RWF=    792 Int=      0 D2E=      0 Chk=     96 Scr=      2
 Normal termination of Gaussian 09 at Fri Sep 14 18:21:13 2018.
