 Entering Gaussian System, Link 0=g09
 Input=Acroleina_water_15_4c.gjf
 Output=Acroleina_water_15_4c.log
 Initial command:
 /usr/local/pacerepov1/gaussian/G09D01LINDA/g09/l1.exe /nv/hp18/holiveira7/scratch/22411933/Gau-44252.inp -scrdir=/nv/hp18/holiveira7/scratch/22411933/
 Entering Link 1 = /usr/local/pacerepov1/gaussian/G09D01LINDA/g09/l1.exe PID=     44253.
  
 Copyright (c) 1988,1990,1992,1993,1995,1998,2003,2009,2013,
            Gaussian, Inc.  All Rights Reserved.
  
 This is part of the Gaussian(R) 09 program.  It is based on
 the Gaussian(R) 03 system (copyright 2003, Gaussian, Inc.),
 the Gaussian(R) 98 system (copyright 1998, Gaussian, Inc.),
 the Gaussian(R) 94 system (copyright 1995, Gaussian, Inc.),
 the Gaussian 92(TM) system (copyright 1992, Gaussian, Inc.),
 the Gaussian 90(TM) system (copyright 1990, Gaussian, Inc.),
 the Gaussian 88(TM) system (copyright 1988, Gaussian, Inc.),
 the Gaussian 86(TM) system (copyright 1986, Carnegie Mellon
 University), and the Gaussian 82(TM) system (copyright 1983,
 Carnegie Mellon University). Gaussian is a federally registered
 trademark of Gaussian, Inc.
  
 This software contains proprietary and confidential information,
 including trade secrets, belonging to Gaussian, Inc.
  
 This software is provided under written license and may be
 used, copied, transmitted, or stored only in accord with that
 written license.
  
 The following legend is applicable only to US Government
 contracts under FAR:
  
                    RESTRICTED RIGHTS LEGEND
  
 Use, reproduction and disclosure by the US Government is
 subject to restrictions as set forth in subparagraphs (a)
 and (c) of the Commercial Computer Software - Restricted
 Rights clause in FAR 52.227-19.
  
 Gaussian, Inc.
 340 Quinnipiac St., Bldg. 40, Wallingford CT 06492
  
  
 ---------------------------------------------------------------
 Warning -- This program may not be used in any manner that
 competes with the business of Gaussian, Inc. or will provide
 assistance to any competitor of Gaussian, Inc.  The licensee
 of this program is prohibited from giving any competitor of
 Gaussian, Inc. access to this program.  By using this program,
 the user acknowledges that Gaussian, Inc. is engaged in the
 business of creating and licensing software in the field of
 computational chemistry and represents and warrants to the
 licensee that it is not a competitor of Gaussian, Inc. and that
 it will not use this program in any manner prohibited above.
 ---------------------------------------------------------------
  

 Cite this work as:
 Gaussian 09, Revision D.01,
 M. J. Frisch, G. W. Trucks, H. B. Schlegel, G. E. Scuseria, 
 M. A. Robb, J. R. Cheeseman, G. Scalmani, V. Barone, B. Mennucci, 
 G. A. Petersson, H. Nakatsuji, M. Caricato, X. Li, H. P. Hratchian, 
 A. F. Izmaylov, J. Bloino, G. Zheng, J. L. Sonnenberg, M. Hada, 
 M. Ehara, K. Toyota, R. Fukuda, J. Hasegawa, M. Ishida, T. Nakajima, 
 Y. Honda, O. Kitao, H. Nakai, T. Vreven, J. A. Montgomery, Jr., 
 J. E. Peralta, F. Ogliaro, M. Bearpark, J. J. Heyd, E. Brothers, 
 K. N. Kudin, V. N. Staroverov, T. Keith, R. Kobayashi, J. Normand, 
 K. Raghavachari, A. Rendell, J. C. Burant, S. S. Iyengar, J. Tomasi, 
 M. Cossi, N. Rega, J. M. Millam, M. Klene, J. E. Knox, J. B. Cross, 
 V. Bakken, C. Adamo, J. Jaramillo, R. Gomperts, R. E. Stratmann, 
 O. Yazyev, A. J. Austin, R. Cammi, C. Pomelli, J. W. Ochterski, 
 R. L. Martin, K. Morokuma, V. G. Zakrzewski, G. A. Voth, 
 P. Salvador, J. J. Dannenberg, S. Dapprich, A. D. Daniels, 
 O. Farkas, J. B. Foresman, J. V. Ortiz, J. Cioslowski, 
 and D. J. Fox, Gaussian, Inc., Wallingford CT, 2013.
 
 ******************************************
 Gaussian 09:  EM64L-G09RevD.01 24-Apr-2013
                14-Sep-2018 
 ******************************************
 %chk=Acrolina_Din_4.chk
 %nprocshared=10
 Will use up to   10 processors via shared memory.
 -------------------------------------------
 #p td=(nstates=15)/6-31+g(d) lc-wpbe charge
 -------------------------------------------
 1/18=10,28=-2,38=1,125=101/1;
 2/12=2,17=6,18=5,40=1/2;
 3/5=1,6=6,7=11,11=9,16=1,25=1,30=1,74=-41/1,2,8,3;
 4//1;
 5/5=2,38=5/2;
 8/6=1,10=2,108=15/1;
 9/41=15,42=1,70=2/14;
 6/7=2,8=2,9=2,10=2/1;
 99/5=1,9=1/99;
 Leave Link    1 at Fri Sep 14 17:17:41 2018, MaxMem=           0 cpu:         2.2
 (Enter /usr/local/pacerepov1/gaussian/G09D01LINDA/g09/l101.exe)
 ------------------
 Acroleina in Water
 ------------------
 Symbolic Z-matrix:
 Charge =  0 Multiplicity = 1
 C                     0.48515   0.48044  -1.43014 
 H                     1.4614    0.18777  -1.05573 
 H                     0.42924   0.87885  -2.43706 
 C                    -0.60513   0.34656  -0.65843 
 H                    -1.59169   0.63289  -1.01241 
 C                    -0.50852  -0.19911   0.7128 
 H                    -1.45849  -0.27211   1.27244 
 O                     0.54488  -0.56132   1.23652 
 O                    -0.71503  -0.74301   3.07833 
 H                    -0.39533  -0.19512   2.30525 
 H                    -0.28533  -0.41496   3.91963 
 O                     0.55423  -2.62693   3.12868 
 H                    -0.07533  -1.85061   3.09638 
 H                     0.03605  -3.47059   3.26915 
 O                     1.99896   3.83914   0.12615 
 H                     2.69589   4.36155  -0.36517 
 H                     1.09091   4.1652   -0.13688 
 O                     2.28184  -4.18029   1.96974 
 H                     1.63078  -3.46057   2.21097 
 H                     2.60446  -4.63056   2.80233 
 O                     3.30593   2.17315   1.1065 
 H                     2.77129   2.88032   0.64372 
 H                     2.70626   1.6377    1.70123 
 O                     0.01002   4.90881  -0.75312 
 H                     0.5564    5.73287  -0.90281 
 H                    -0.94288   5.09231  -0.99467 
 O                    -2.86685  -1.08941   3.85275 
 H                    -2.73204  -1.63451   4.68025 
 H                    -1.97808  -0.86451   3.45334 
 O                     2.03829  -5.70667  -0.57283 
 H                     1.98199  -5.13426   0.24522 
 H                     2.97189  -5.68573  -0.93063 
 O                     2.30785  -1.5788    4.48016 
 H                     3.09703  -1.32826   3.91939 
 H                     1.6551   -2.09471   3.92535 
 O                    -0.25986  -6.14421  -0.28267 
 H                     0.73309  -6.2537   -0.32874 
 H                    -0.70246  -6.99486  -0.56647 
 O                     0.51922   0.19961   5.00385 
 H                     0.95305   0.93758   5.52078 
 H                     1.21234  -0.46658   4.72852 
 O                     4.04107  -3.88009   0.36729 
 H                     3.27973  -3.95068   1.01183 
 H                     3.8729   -4.48093  -0.41423 
 O                    -2.51599   5.35889  -0.74437 
 H                    -3.18236   4.62521  -0.87747 
 H                    -2.45217   5.57857   0.22913 
 O                    -0.2483   -4.74009   3.54613 
 H                    -0.37852  -5.48086   2.88707 
 H                     0.51025  -4.96702   4.15697 
 
 NAtoms=     50 NQM=       50 NQMF=       0 NMMI=      0 NMMIF=      0
                NMic=       0 NMicF=      0.
                    Isotopes and Nuclear Properties:
 (Nuclear quadrupole moments (NQMom) in fm**2, nuclear magnetic moments (NMagM)
  in nuclear magnetons)

  Atom         1           2           3           4           5           6           7           8           9          10
 IAtWgt=          12           1           1          12           1          12           1          16          16           1
 AtmWgt=  12.0000000   1.0078250   1.0078250  12.0000000   1.0078250  12.0000000   1.0078250  15.9949146  15.9949146   1.0078250
 NucSpn=           0           1           1           0           1           0           1           0           0           1
 AtZEff=   0.0000000   0.0000000   0.0000000   0.0000000   0.0000000   0.0000000   0.0000000   0.0000000   0.0000000   0.0000000
 NQMom=    0.0000000   0.0000000   0.0000000   0.0000000   0.0000000   0.0000000   0.0000000   0.0000000   0.0000000   0.0000000
 NMagM=    0.0000000   2.7928460   2.7928460   0.0000000   2.7928460   0.0000000   2.7928460   0.0000000   0.0000000   2.7928460
 AtZNuc=   6.0000000   1.0000000   1.0000000   6.0000000   1.0000000   6.0000000   1.0000000   8.0000000   8.0000000   1.0000000

  Atom        11          12          13          14          15          16          17          18          19          20
 IAtWgt=           1          16           1           1          16           1           1          16           1           1
 AtmWgt=   1.0078250  15.9949146   1.0078250   1.0078250  15.9949146   1.0078250   1.0078250  15.9949146   1.0078250   1.0078250
 NucSpn=           1           0           1           1           0           1           1           0           1           1
 AtZEff=   0.0000000   0.0000000   0.0000000   0.0000000   0.0000000   0.0000000   0.0000000   0.0000000   0.0000000   0.0000000
 NQMom=    0.0000000   0.0000000   0.0000000   0.0000000   0.0000000   0.0000000   0.0000000   0.0000000   0.0000000   0.0000000
 NMagM=    2.7928460   0.0000000   2.7928460   2.7928460   0.0000000   2.7928460   2.7928460   0.0000000   2.7928460   2.7928460
 AtZNuc=   1.0000000   8.0000000   1.0000000   1.0000000   8.0000000   1.0000000   1.0000000   8.0000000   1.0000000   1.0000000

  Atom        21          22          23          24          25          26          27          28          29          30
 IAtWgt=          16           1           1          16           1           1          16           1           1          16
 AtmWgt=  15.9949146   1.0078250   1.0078250  15.9949146   1.0078250   1.0078250  15.9949146   1.0078250   1.0078250  15.9949146
 NucSpn=           0           1           1           0           1           1           0           1           1           0
 AtZEff=   0.0000000   0.0000000   0.0000000   0.0000000   0.0000000   0.0000000   0.0000000   0.0000000   0.0000000   0.0000000
 NQMom=    0.0000000   0.0000000   0.0000000   0.0000000   0.0000000   0.0000000   0.0000000   0.0000000   0.0000000   0.0000000
 NMagM=    0.0000000   2.7928460   2.7928460   0.0000000   2.7928460   2.7928460   0.0000000   2.7928460   2.7928460   0.0000000
 AtZNuc=   8.0000000   1.0000000   1.0000000   8.0000000   1.0000000   1.0000000   8.0000000   1.0000000   1.0000000   8.0000000

  Atom        31          32          33          34          35          36          37          38          39          40
 IAtWgt=           1           1          16           1           1          16           1           1          16           1
 AtmWgt=   1.0078250   1.0078250  15.9949146   1.0078250   1.0078250  15.9949146   1.0078250   1.0078250  15.9949146   1.0078250
 NucSpn=           1           1           0           1           1           0           1           1           0           1
 AtZEff=   0.0000000   0.0000000   0.0000000   0.0000000   0.0000000   0.0000000   0.0000000   0.0000000   0.0000000   0.0000000
 NQMom=    0.0000000   0.0000000   0.0000000   0.0000000   0.0000000   0.0000000   0.0000000   0.0000000   0.0000000   0.0000000
 NMagM=    2.7928460   2.7928460   0.0000000   2.7928460   2.7928460   0.0000000   2.7928460   2.7928460   0.0000000   2.7928460
 AtZNuc=   1.0000000   1.0000000   8.0000000   1.0000000   1.0000000   8.0000000   1.0000000   1.0000000   8.0000000   1.0000000

  Atom        41          42          43          44          45          46          47          48          49          50
 IAtWgt=           1          16           1           1          16           1           1          16           1           1
 AtmWgt=   1.0078250  15.9949146   1.0078250   1.0078250  15.9949146   1.0078250   1.0078250  15.9949146   1.0078250   1.0078250
 NucSpn=           1           0           1           1           0           1           1           0           1           1
 AtZEff=   0.0000000   0.0000000   0.0000000   0.0000000   0.0000000   0.0000000   0.0000000   0.0000000   0.0000000   0.0000000
 NQMom=    0.0000000   0.0000000   0.0000000   0.0000000   0.0000000   0.0000000   0.0000000   0.0000000   0.0000000   0.0000000
 NMagM=    2.7928460   0.0000000   2.7928460   2.7928460   0.0000000   2.7928460   2.7928460   0.0000000   2.7928460   2.7928460
 AtZNuc=   1.0000000   8.0000000   1.0000000   1.0000000   8.0000000   1.0000000   1.0000000   8.0000000   1.0000000   1.0000000
 Background charge distribution read from input stream:
 Point Charges:
 XYZ=   -2.4932    3.8315   -4.4826 Q=   -0.8200 A=    0.0000 R=    0.0000 C=    0.0000
 XYZ=   -1.7487    3.9580   -3.8271 Q=    0.4100 A=    0.0000 R=    0.0000 C=    0.0000
 XYZ=   -3.3313    4.2368   -4.1174 Q=    0.4100 A=    0.0000 R=    0.0000 C=    0.0000
 XYZ=    3.0198    5.4234    1.9451 Q=   -0.8200 A=    0.0000 R=    0.0000 C=    0.0000
 XYZ=    2.3761    4.8175    1.4776 Q=    0.4100 A=    0.0000 R=    0.0000 C=    0.0000
 XYZ=    3.4010    6.0747    1.2889 Q=    0.4100 A=    0.0000 R=    0.0000 C=    0.0000
 XYZ=   -1.1111   -6.6162    1.9299 Q=   -0.8200 A=    0.0000 R=    0.0000 C=    0.0000
 XYZ=   -0.5612   -6.1704    1.2235 Q=    0.4100 A=    0.0000 R=    0.0000 C=    0.0000
 XYZ=   -1.8899   -7.0773    1.5045 Q=    0.4100 A=    0.0000 R=    0.0000 C=    0.0000
 XYZ=   -2.5568    5.9131    1.5871 Q=   -0.8200 A=    0.0000 R=    0.0000 C=    0.0000
 XYZ=   -3.4513    5.6019    1.9082 Q=    0.4100 A=    0.0000 R=    0.0000 C=    0.0000
 XYZ=   -1.8460    5.3043    1.9394 Q=    0.4100 A=    0.0000 R=    0.0000 C=    0.0000
 XYZ=    3.9647   -0.4934   -4.5750 Q=   -0.8200 A=    0.0000 R=    0.0000 C=    0.0000
 XYZ=    3.4722   -0.0350   -5.3148 Q=    0.4100 A=    0.0000 R=    0.0000 C=    0.0000
 XYZ=    4.6162    0.1439   -4.1633 Q=    0.4100 A=    0.0000 R=    0.0000 C=    0.0000
 XYZ=    5.4704    2.5037    0.4654 Q=   -0.8200 A=    0.0000 R=    0.0000 C=    0.0000
 XYZ=    5.6270    2.2574   -0.4911 Q=    0.4100 A=    0.0000 R=    0.0000 C=    0.0000
 XYZ=    4.5138    2.3320    0.7013 Q=    0.4100 A=    0.0000 R=    0.0000 C=    0.0000
 XYZ=   -4.9213   -1.2522    2.8280 Q=   -0.8200 A=    0.0000 R=    0.0000 C=    0.0000
 XYZ=   -3.9867   -1.2395    3.1833 Q=    0.4100 A=    0.0000 R=    0.0000 C=    0.0000
 XYZ=   -5.2908   -2.1791    2.8951 Q=    0.4100 A=    0.0000 R=    0.0000 C=    0.0000
 XYZ=    1.5076    6.6834   -1.4658 Q=   -0.8200 A=    0.0000 R=    0.0000 C=    0.0000
 XYZ=    2.1897    5.9641   -1.5976 Q=    0.4100 A=    0.0000 R=    0.0000 C=    0.0000
 XYZ=    0.9871    6.8079   -2.3106 Q=    0.4100 A=    0.0000 R=    0.0000 C=    0.0000
 XYZ=   -2.3255   -4.7286    4.6965 Q=   -0.8200 A=    0.0000 R=    0.0000 C=    0.0000
 XYZ=   -1.4703   -4.6229    4.1890 Q=    0.4100 A=    0.0000 R=    0.0000 C=    0.0000
 XYZ=   -2.1729   -5.3221    5.4868 Q=    0.4100 A=    0.0000 R=    0.0000 C=    0.0000
 XYZ=    5.9121   -2.5898   -0.2188 Q=   -0.8200 A=    0.0000 R=    0.0000 C=    0.0000
 XYZ=    4.9960   -2.9814   -0.1322 Q=    0.4100 A=    0.0000 R=    0.0000 C=    0.0000
 XYZ=    6.5638   -3.3134   -0.4459 Q=    0.4100 A=    0.0000 R=    0.0000 C=    0.0000
 XYZ=    3.4342    5.3035   -1.0700 Q=   -0.8200 A=    0.0000 R=    0.0000 C=    0.0000
 XYZ=    3.7773    5.9937   -0.4328 Q=    0.4100 A=    0.0000 R=    0.0000 C=    0.0000
 XYZ=    4.2041    4.8714   -1.5396 Q=    0.4100 A=    0.0000 R=    0.0000 C=    0.0000
 XYZ=   -0.2875   -1.8743    6.2168 Q=   -0.8200 A=    0.0000 R=    0.0000 C=    0.0000
 XYZ=   -0.2016   -0.9719    5.7945 Q=    0.4100 A=    0.0000 R=    0.0000 C=    0.0000
 XYZ=   -1.0924   -2.3395    5.8482 Q=    0.4100 A=    0.0000 R=    0.0000 C=    0.0000
 XYZ=    4.1967   -5.3346   -1.4382 Q=   -0.8200 A=    0.0000 R=    0.0000 C=    0.0000
 XYZ=    4.8237   -6.1048   -1.3212 Q=    0.4100 A=    0.0000 R=    0.0000 C=    0.0000
 XYZ=    4.4110   -4.8568   -2.2901 Q=    0.4100 A=    0.0000 R=    0.0000 C=    0.0000
 XYZ=   -1.9677    6.9055   -2.3528 Q=   -0.8200 A=    0.0000 R=    0.0000 C=    0.0000
 XYZ=   -2.1536    6.2635   -1.6089 Q=    0.4100 A=    0.0000 R=    0.0000 C=    0.0000
 XYZ=   -1.7028    7.7908   -1.9706 Q=    0.4100 A=    0.0000 R=    0.0000 C=    0.0000
 XYZ=    2.9692    0.4613   -6.4883 Q=   -0.8200 A=    0.0000 R=    0.0000 C=    0.0000
 XYZ=    2.9802    1.3373   -6.9706 Q=    0.4100 A=    0.0000 R=    0.0000 C=    0.0000
 XYZ=    2.0932    0.0053   -6.6456 Q=    0.4100 A=    0.0000 R=    0.0000 C=    0.0000
 XYZ=   -2.4398    1.8142   -6.0153 Q=   -0.8200 A=    0.0000 R=    0.0000 C=    0.0000
 XYZ=   -2.3828    2.6121   -5.4152 Q=    0.4100 A=    0.0000 R=    0.0000 C=    0.0000
 XYZ=   -2.5573    2.1164   -6.9613 Q=    0.4100 A=    0.0000 R=    0.0000 C=    0.0000
 XYZ=   -3.8543   -4.9465    1.2581 Q=   -0.8200 A=    0.0000 R=    0.0000 C=    0.0000
 XYZ=   -3.2245   -5.7184    1.1705 Q=    0.4100 A=    0.0000 R=    0.0000 C=    0.0000
 XYZ=   -4.4440   -4.9044    0.4515 Q=    0.4100 A=    0.0000 R=    0.0000 C=    0.0000
 XYZ=    5.1392   -2.3739   -4.0344 Q=   -0.8200 A=    0.0000 R=    0.0000 C=    0.0000
 XYZ=    5.7552   -2.0561   -3.3135 Q=    0.4100 A=    0.0000 R=    0.0000 C=    0.0000
 XYZ=    4.4757   -1.6563   -4.2462 Q=    0.4100 A=    0.0000 R=    0.0000 C=    0.0000
 XYZ=    4.4758   -0.9919    3.6344 Q=   -0.8200 A=    0.0000 R=    0.0000 C=    0.0000
 XYZ=    4.8978   -0.2349    4.1334 Q=    0.4100 A=    0.0000 R=    0.0000 C=    0.0000
 XYZ=    4.8942   -1.0689    2.7294 Q=    0.4100 A=    0.0000 R=    0.0000 C=    0.0000
 XYZ=   -4.2991   -4.5759    3.4693 Q=   -0.8200 A=    0.0000 R=    0.0000 C=    0.0000
 XYZ=   -3.4613   -4.6526    4.0100 Q=    0.4100 A=    0.0000 R=    0.0000 C=    0.0000
 XYZ=   -4.0668   -4.5478    2.4971 Q=    0.4100 A=    0.0000 R=    0.0000 C=    0.0000
 XYZ=   -4.9099    4.0912   -1.0160 Q=   -0.8200 A=    0.0000 R=    0.0000 C=    0.0000
 XYZ=   -5.1945    4.7188   -0.2914 Q=    0.4100 A=    0.0000 R=    0.0000 C=    0.0000
 XYZ=   -5.6074    3.3850   -1.1383 Q=    0.4100 A=    0.0000 R=    0.0000 C=    0.0000
 XYZ=   -4.9858    0.2455    4.7420 Q=   -0.8200 A=    0.0000 R=    0.0000 C=    0.0000
 XYZ=   -4.0351    0.3561    5.0318 Q=    0.4100 A=    0.0000 R=    0.0000 C=    0.0000
 XYZ=   -5.0158   -0.2763    3.8894 Q=    0.4100 A=    0.0000 R=    0.0000 C=    0.0000
 XYZ=    0.2830    6.9731   -3.4128 Q=   -0.8200 A=    0.0000 R=    0.0000 C=    0.0000
 XYZ=   -0.6395    6.7426   -3.1030 Q=    0.4100 A=    0.0000 R=    0.0000 C=    0.0000
 XYZ=    0.3336    6.8799   -4.4072 Q=    0.4100 A=    0.0000 R=    0.0000 C=    0.0000
 XYZ=   -2.5234   -2.6149    5.5660 Q=   -0.8200 A=    0.0000 R=    0.0000 C=    0.0000
 XYZ=   -3.1177   -2.5546    6.3681 Q=    0.4100 A=    0.0000 R=    0.0000 C=    0.0000
 XYZ=   -2.5040   -3.5586    5.2358 Q=    0.4100 A=    0.0000 R=    0.0000 C=    0.0000
 XYZ=   -4.4188    4.5817   -3.4414 Q=   -0.8200 A=    0.0000 R=    0.0000 C=    0.0000
 XYZ=   -4.6535    4.3612   -2.4947 Q=    0.4100 A=    0.0000 R=    0.0000 C=    0.0000
 XYZ=   -5.1239    4.2215   -4.0522 Q=    0.4100 A=    0.0000 R=    0.0000 C=    0.0000
 XYZ=    4.8230   -4.5988   -3.6501 Q=   -0.8200 A=    0.0000 R=    0.0000 C=    0.0000
 XYZ=    4.9771   -3.6109   -3.6708 Q=    0.4100 A=    0.0000 R=    0.0000 C=    0.0000
 XYZ=    4.2113   -4.8565   -4.3981 Q=    0.4100 A=    0.0000 R=    0.0000 C=    0.0000
 XYZ=    1.8257    1.4753    6.4025 Q=   -0.8200 A=    0.0000 R=    0.0000 C=    0.0000
 XYZ=    2.1996    0.7097    6.9261 Q=    0.4100 A=    0.0000 R=    0.0000 C=    0.0000
 XYZ=    2.5411    2.1579    6.2532 Q=    0.4100 A=    0.0000 R=    0.0000 C=    0.0000
 XYZ=    5.1018   -5.2648    2.1008 Q=   -0.8200 A=    0.0000 R=    0.0000 C=    0.0000
 XYZ=    4.7071   -4.7758    1.3229 Q=    0.4100 A=    0.0000 R=    0.0000 C=    0.0000
 XYZ=    4.4395   -5.2894    2.8497 Q=    0.4100 A=    0.0000 R=    0.0000 C=    0.0000
 XYZ=    3.5520   -4.7348    3.9087 Q=   -0.8200 A=    0.0000 R=    0.0000 C=    0.0000
 XYZ=    2.9300   -5.1839    4.5501 Q=    0.4100 A=    0.0000 R=    0.0000 C=    0.0000
 XYZ=    4.1024   -4.0575    4.3970 Q=    0.4100 A=    0.0000 R=    0.0000 C=    0.0000
 XYZ=   -4.6724    1.8384   -5.7230 Q=   -0.8200 A=    0.0000 R=    0.0000 C=    0.0000
 XYZ=   -5.2087    1.0472   -5.4289 Q=    0.4100 A=    0.0000 R=    0.0000 C=    0.0000
 XYZ=   -3.7088    1.5802   -5.7934 Q=    0.4100 A=    0.0000 R=    0.0000 C=    0.0000
 XYZ=    3.1969   -2.1691    6.5303 Q=   -0.8200 A=    0.0000 R=    0.0000 C=    0.0000
 XYZ=    2.9024   -1.9404    5.6024 Q=    0.4100 A=    0.0000 R=    0.0000 C=    0.0000
 XYZ=    3.5167   -1.3417    6.9920 Q=    0.4100 A=    0.0000 R=    0.0000 C=    0.0000
 XYZ=    5.7347    2.2049   -1.7076 Q=   -0.8200 A=    0.0000 R=    0.0000 C=    0.0000
 XYZ=    5.4106    3.1386   -1.8600 Q=    0.4100 A=    0.0000 R=    0.0000 C=    0.0000
 XYZ=    5.6431    1.6782   -2.5528 Q=    0.4100 A=    0.0000 R=    0.0000 C=    0.0000
 XYZ=    5.9644   -1.6996    1.8616 Q=   -0.8200 A=    0.0000 R=    0.0000 C=    0.0000
 XYZ=    5.8295   -2.0409    0.9314 Q=    0.4100 A=    0.0000 R=    0.0000 C=    0.0000
 XYZ=    6.2812   -2.4454    2.4476 Q=    0.4100 A=    0.0000 R=    0.0000 C=    0.0000
 XYZ=    4.8368   -3.0276    4.8065 Q=   -0.8200 A=    0.0000 R=    0.0000 C=    0.0000
 XYZ=    4.6179   -2.1881    4.3092 Q=    0.4100 A=    0.0000 R=    0.0000 C=    0.0000
 XYZ=    4.3708   -3.0219    5.6913 Q=    0.4100 A=    0.0000 R=    0.0000 C=    0.0000
 XYZ=    1.4283   -5.2023    5.2540 Q=   -0.8200 A=    0.0000 R=    0.0000 C=    0.0000
 XYZ=    0.9145   -6.0295    5.4817 Q=    0.4100 A=    0.0000 R=    0.0000 C=    0.0000
 XYZ=    1.2512   -4.4996    5.9432 Q=    0.4100 A=    0.0000 R=    0.0000 C=    0.0000
 XYZ=    5.8621    0.5000   -3.5157 Q=   -0.8200 A=    0.0000 R=    0.0000 C=    0.0000
 XYZ=    6.4472    0.7434   -4.2892 Q=    0.4100 A=    0.0000 R=    0.0000 C=    0.0000
 XYZ=    6.2241   -0.3177   -3.0682 Q=    0.4100 A=    0.0000 R=    0.0000 C=    0.0000
 XYZ=    6.6289   -1.6085   -2.4281 Q=   -0.8200 A=    0.0000 R=    0.0000 C=    0.0000
 XYZ=    7.5795   -1.5507   -2.1229 Q=    0.4100 A=    0.0000 R=    0.0000 C=    0.0000
 XYZ=    6.0954   -2.1274   -1.7601 Q=    0.4100 A=    0.0000 R=    0.0000 C=    0.0000
 XYZ=   -1.7399    8.0780    1.2106 Q=   -0.8200 A=    0.0000 R=    0.0000 C=    0.0000
 XYZ=   -2.0531    8.7431    1.8886 Q=    0.4100 A=    0.0000 R=    0.0000 C=    0.0000
 XYZ=   -2.1726    7.1938    1.3866 Q=    0.4100 A=    0.0000 R=    0.0000 C=    0.0000
 XYZ=   -1.5926    5.0334   -6.4149 Q=   -0.8200 A=    0.0000 R=    0.0000 C=    0.0000
 XYZ=   -1.9102    4.3788   -5.7289 Q=    0.4100 A=    0.0000 R=    0.0000 C=    0.0000
 XYZ=   -2.3653    5.3288   -6.9767 Q=    0.4100 A=    0.0000 R=    0.0000 C=    0.0000
 XYZ=    1.6425    7.0264    3.2865 Q=   -0.8200 A=    0.0000 R=    0.0000 C=    0.0000
 XYZ=    0.9761    7.4807    2.6953 Q=    0.4100 A=    0.0000 R=    0.0000 C=    0.0000
 XYZ=    2.2199    6.4233    2.7361 Q=    0.4100 A=    0.0000 R=    0.0000 C=    0.0000
 XYZ=    1.3254   -3.4321    6.9058 Q=   -0.8200 A=    0.0000 R=    0.0000 C=    0.0000
 XYZ=    2.2407   -3.0414    6.8071 Q=    0.4100 A=    0.0000 R=    0.0000 C=    0.0000
 XYZ=    0.6419   -2.7483    6.6503 Q=    0.4100 A=    0.0000 R=    0.0000 C=    0.0000
 XYZ=    5.1391    4.5613   -2.3691 Q=   -0.8200 A=    0.0000 R=    0.0000 C=    0.0000
 XYZ=    6.0754    4.6666   -2.0340 Q=    0.4100 A=    0.0000 R=    0.0000 C=    0.0000
 XYZ=    5.0780    4.9130   -3.3032 Q=    0.4100 A=    0.0000 R=    0.0000 C=    0.0000
 XYZ=   -6.7306   -0.9425    1.1556 Q=   -0.8200 A=    0.0000 R=    0.0000 C=    0.0000
 XYZ=   -6.0098   -0.7960    1.8330 Q=    0.4100 A=    0.0000 R=    0.0000 C=    0.0000
 XYZ=   -6.8585   -1.9238    1.0118 Q=    0.4100 A=    0.0000 R=    0.0000 C=    0.0000
 XYZ=   -1.3793   -8.3409   -0.7097 Q=   -0.8200 A=    0.0000 R=    0.0000 C=    0.0000
 XYZ=   -0.7754   -8.9510   -0.1967 Q=    0.4100 A=    0.0000 R=    0.0000 C=    0.0000
 XYZ=   -2.0279   -8.8846   -1.2424 Q=    0.4100 A=    0.0000 R=    0.0000 C=    0.0000
 XYZ=    2.2652    8.2804    0.1054 Q=   -0.8200 A=    0.0000 R=    0.0000 C=    0.0000
 XYZ=    1.5337    8.3517    0.7835 Q=    0.4100 A=    0.0000 R=    0.0000 C=    0.0000
 XYZ=    1.9415    7.7521   -0.6797 Q=    0.4100 A=    0.0000 R=    0.0000 C=    0.0000
 XYZ=    6.8173    0.2680    0.9110 Q=   -0.8200 A=    0.0000 R=    0.0000 C=    0.0000
 XYZ=    6.0963    0.9607    0.8920 Q=    0.4100 A=    0.0000 R=    0.0000 C=    0.0000
 XYZ=    6.4611   -0.5729    1.3184 Q=    0.4100 A=    0.0000 R=    0.0000 C=    0.0000
 XYZ=   -2.8670   -7.5768    0.9571 Q=   -0.8200 A=    0.0000 R=    0.0000 C=    0.0000
 XYZ=   -3.8046   -7.4225    0.6454 Q=    0.4100 A=    0.0000 R=    0.0000 C=    0.0000
 XYZ=   -2.3367   -7.9994    0.2221 Q=    0.4100 A=    0.0000 R=    0.0000 C=    0.0000
 XYZ=   -5.4154   -5.1971   -0.5745 Q=   -0.8200 A=    0.0000 R=    0.0000 C=    0.0000
 XYZ=   -5.8425   -5.1208   -1.4755 Q=    0.4100 A=    0.0000 R=    0.0000 C=    0.0000
 XYZ=   -5.3030   -6.1626   -0.3396 Q=    0.4100 A=    0.0000 R=    0.0000 C=    0.0000
 XYZ=   -4.7599    5.1077    2.1221 Q=   -0.8200 A=    0.0000 R=    0.0000 C=    0.0000
 XYZ=   -5.1369    5.6720    1.3876 Q=    0.4100 A=    0.0000 R=    0.0000 C=    0.0000
 XYZ=   -5.1747    5.3730    2.9925 Q=    0.4100 A=    0.0000 R=    0.0000 C=    0.0000
 XYZ=   -0.6362   -8.2763    3.5114 Q=   -0.8200 A=    0.0000 R=    0.0000 C=    0.0000
 XYZ=    0.3084   -8.5548    3.3375 Q=    0.4100 A=    0.0000 R=    0.0000 C=    0.0000
 XYZ=   -0.9087   -7.5856    2.8415 Q=    0.4100 A=    0.0000 R=    0.0000 C=    0.0000
 XYZ=    5.4224    0.9237    4.8776 Q=   -0.8200 A=    0.0000 R=    0.0000 C=    0.0000
 XYZ=    5.8882    0.5424    5.6761 Q=    0.4100 A=    0.0000 R=    0.0000 C=    0.0000
 XYZ=    4.7816    1.6326    5.1725 Q=    0.4100 A=    0.0000 R=    0.0000 C=    0.0000
 XYZ=    4.8278    5.4029    3.4825 Q=   -0.8200 A=    0.0000 R=    0.0000 C=    0.0000
 XYZ=    4.5565    5.2927    4.4387 Q=    0.4100 A=    0.0000 R=    0.0000 C=    0.0000
 XYZ=    4.0139    5.3904    2.9016 Q=    0.4100 A=    0.0000 R=    0.0000 C=    0.0000
 XYZ=   -0.6952   -5.3221   -7.1389 Q=   -0.8200 A=    0.0000 R=    0.0000 C=    0.0000
 XYZ=    0.2347   -5.1302   -6.8248 Q=    0.4100 A=    0.0000 R=    0.0000 C=    0.0000
 XYZ=   -1.2194   -5.7364   -6.3949 Q=    0.4100 A=    0.0000 R=    0.0000 C=    0.0000
 XYZ=    4.5637   -0.9607   -7.5792 Q=   -0.8200 A=    0.0000 R=    0.0000 C=    0.0000
 XYZ=    4.6953   -1.7534   -6.9839 Q=    0.4100 A=    0.0000 R=    0.0000 C=    0.0000
 XYZ=    3.9764   -0.2936   -7.1209 Q=    0.4100 A=    0.0000 R=    0.0000 C=    0.0000
 XYZ=   -6.5443    3.5317    1.7955 Q=   -0.8200 A=    0.0000 R=    0.0000 C=    0.0000
 XYZ=   -5.6845    4.0218    1.9400 Q=    0.4100 A=    0.0000 R=    0.0000 C=    0.0000
 XYZ=   -6.6209    3.2696    0.8335 Q=    0.4100 A=    0.0000 R=    0.0000 C=    0.0000
 XYZ=   -6.6482   -3.2607    0.8592 Q=   -0.8200 A=    0.0000 R=    0.0000 C=    0.0000
 XYZ=   -6.0551   -3.8918    0.3592 Q=    0.4100 A=    0.0000 R=    0.0000 C=    0.0000
 XYZ=   -6.5362   -3.4062    1.8422 Q=    0.4100 A=    0.0000 R=    0.0000 C=    0.0000
 XYZ=    1.1257    3.1072    8.0013 Q=   -0.8200 A=    0.0000 R=    0.0000 C=    0.0000
 XYZ=    1.2936    2.3821    7.3334 Q=    0.4100 A=    0.0000 R=    0.0000 C=    0.0000
 XYZ=    0.1943    3.0245    8.3558 Q=    0.4100 A=    0.0000 R=    0.0000 C=    0.0000
 XYZ=   -6.2158   -3.2713    3.1212 Q=   -0.8200 A=    0.0000 R=    0.0000 C=    0.0000
 XYZ=   -6.7733   -3.0280    3.9149 Q=    0.4100 A=    0.0000 R=    0.0000 C=    0.0000
 XYZ=   -5.4431   -3.8333    3.4163 Q=    0.4100 A=    0.0000 R=    0.0000 C=    0.0000
 XYZ=    0.5387    8.1661    1.6096 Q=   -0.8200 A=    0.0000 R=    0.0000 C=    0.0000
 XYZ=    0.6759    8.9992    2.1456 Q=    0.4100 A=    0.0000 R=    0.0000 C=    0.0000
 XYZ=   -0.4339    8.0594    1.4027 Q=    0.4100 A=    0.0000 R=    0.0000 C=    0.0000
 XYZ=    6.2226    3.6513    2.5118 Q=   -0.8200 A=    0.0000 R=    0.0000 C=    0.0000
 XYZ=    5.5763    4.3679    2.7739 Q=    0.4100 A=    0.0000 R=    0.0000 C=    0.0000
 XYZ=    5.9373    3.2466    1.6430 Q=    0.4100 A=    0.0000 R=    0.0000 C=    0.0000
 XYZ=    5.1492   -2.9046   -6.4327 Q=   -0.8200 A=    0.0000 R=    0.0000 C=    0.0000
 XYZ=    5.0834   -2.6944   -5.4573 Q=    0.4100 A=    0.0000 R=    0.0000 C=    0.0000
 XYZ=    6.0898   -3.1611   -6.6557 Q=    0.4100 A=    0.0000 R=    0.0000 C=    0.0000
 XYZ=    2.7078    5.6422   -6.0403 Q=   -0.8200 A=    0.0000 R=    0.0000 C=    0.0000
 XYZ=    3.6054    5.6188   -5.6001 Q=    0.4100 A=    0.0000 R=    0.0000 C=    0.0000
 XYZ=    2.0076    5.8538   -5.3583 Q=    0.4100 A=    0.0000 R=    0.0000 C=    0.0000
 XYZ=   -4.0841    6.9972   -3.6399 Q=   -0.8200 A=    0.0000 R=    0.0000 C=    0.0000
 XYZ=   -3.2347    7.2200   -3.1616 Q=    0.4100 A=    0.0000 R=    0.0000 C=    0.0000
 XYZ=   -4.2480    6.0121   -3.5869 Q=    0.4100 A=    0.0000 R=    0.0000 C=    0.0000
 XYZ=    4.0536    6.9796    0.5620 Q=   -0.8200 A=    0.0000 R=    0.0000 C=    0.0000
 XYZ=    3.3448    7.6734    0.4338 Q=    0.4100 A=    0.0000 R=    0.0000 C=    0.0000
 XYZ=    4.9364    7.3471    0.2695 Q=    0.4100 A=    0.0000 R=    0.0000 C=    0.0000
 XYZ=    6.4856   -3.5527    3.1498 Q=   -0.8200 A=    0.0000 R=    0.0000 C=    0.0000
 XYZ=    5.9934   -3.2540    3.9674 Q=    0.4100 A=    0.0000 R=    0.0000 C=    0.0000
 XYZ=    5.9217   -4.2025    2.6401 Q=    0.4100 A=    0.0000 R=    0.0000 C=    0.0000
 XYZ=   -6.1483   -4.1417   -4.4935 Q=   -0.8200 A=    0.0000 R=    0.0000 C=    0.0000
 XYZ=   -5.7992   -3.4672   -3.8430 Q=    0.4100 A=    0.0000 R=    0.0000 C=    0.0000
 XYZ=   -6.1126   -3.7625   -5.4181 Q=    0.4100 A=    0.0000 R=    0.0000 C=    0.0000
 XYZ=    0.0873    6.5385   -5.7107 Q=   -0.8200 A=    0.0000 R=    0.0000 C=    0.0000
 XYZ=   -0.6981    5.9398   -5.8681 Q=    0.4100 A=    0.0000 R=    0.0000 C=    0.0000
 XYZ=    0.5748    6.6821   -6.5719 Q=    0.4100 A=    0.0000 R=    0.0000 C=    0.0000
 XYZ=    4.1303    2.6284    6.0913 Q=   -0.8200 A=    0.0000 R=    0.0000 C=    0.0000
 XYZ=    4.4723    2.5797    7.0297 Q=    0.4100 A=    0.0000 R=    0.0000 C=    0.0000
 XYZ=    4.2966    3.5431    5.7229 Q=    0.4100 A=    0.0000 R=    0.0000 C=    0.0000
 XYZ=   -1.4582    8.8964   -1.0981 Q=   -0.8200 A=    0.0000 R=    0.0000 C=    0.0000
 XYZ=   -0.6093    9.4097   -1.2244 Q=    0.4100 A=    0.0000 R=    0.0000 C=    0.0000
 XYZ=   -1.4602    8.4732   -0.1921 Q=    0.4100 A=    0.0000 R=    0.0000 C=    0.0000
 XYZ=   -6.7839    2.8693   -0.7617 Q=   -0.8200 A=    0.0000 R=    0.0000 C=    0.0000
 XYZ=   -7.1359    1.9337   -0.7928 Q=    0.4100 A=    0.0000 R=    0.0000 C=    0.0000
 XYZ=   -7.2296    3.4167   -1.4700 Q=    0.4100 A=    0.0000 R=    0.0000 C=    0.0000
 XYZ=    6.9157   -5.2898   -2.7578 Q=   -0.8200 A=    0.0000 R=    0.0000 C=    0.0000
 XYZ=    6.0523   -5.1281   -3.2359 Q=    0.4100 A=    0.0000 R=    0.0000 C=    0.0000
 XYZ=    7.6486   -5.4148   -3.4266 Q=    0.4100 A=    0.0000 R=    0.0000 C=    0.0000
 XYZ=   -1.4977   -1.0895    8.2760 Q=   -0.8200 A=    0.0000 R=    0.0000 C=    0.0000
 XYZ=   -0.7999   -1.3834    7.6227 Q=    0.4100 A=    0.0000 R=    0.0000 C=    0.0000
 XYZ=   -1.2664   -1.4311    9.1869 Q=    0.4100 A=    0.0000 R=    0.0000 C=    0.0000
 XYZ=   -2.6648   -6.2089   -5.9838 Q=   -0.8200 A=    0.0000 R=    0.0000 C=    0.0000
 XYZ=   -2.7714   -6.2076   -6.9781 Q=    0.4100 A=    0.0000 R=    0.0000 C=    0.0000
 XYZ=   -3.5633   -6.1285   -5.5522 Q=    0.4100 A=    0.0000 R=    0.0000 C=    0.0000
 XYZ=   -6.8737    1.7205    5.1638 Q=   -0.8200 A=    0.0000 R=    0.0000 C=    0.0000
 XYZ=   -6.0895    1.1648    4.8877 Q=    0.4100 A=    0.0000 R=    0.0000 C=    0.0000
 XYZ=   -7.5312    1.1486    5.6544 Q=    0.4100 A=    0.0000 R=    0.0000 C=    0.0000
 XYZ=   -7.5936    0.5393   -0.6803 Q=   -0.8200 A=    0.0000 R=    0.0000 C=    0.0000
 XYZ=   -7.8251   -0.2403   -1.2623 Q=    0.4100 A=    0.0000 R=    0.0000 C=    0.0000
 XYZ=   -7.0363    0.2270    0.0891 Q=    0.4100 A=    0.0000 R=    0.0000 C=    0.0000
 XYZ=    7.8259    1.1906   -0.9352 Q=   -0.8200 A=    0.0000 R=    0.0000 C=    0.0000
 XYZ=    7.0504    1.4892   -1.4916 Q=    0.4100 A=    0.0000 R=    0.0000 C=    0.0000
 XYZ=    7.4894    0.7773   -0.0891 Q=    0.4100 A=    0.0000 R=    0.0000 C=    0.0000
 XYZ=   -1.0436   -1.0100   -9.9075 Q=   -0.8200 A=    0.0000 R=    0.0000 C=    0.0000
 XYZ=   -1.0700   -1.9014  -10.3599 Q=    0.4100 A=    0.0000 R=    0.0000 C=    0.0000
 XYZ=   -1.1438   -1.1343   -8.9203 Q=    0.4100 A=    0.0000 R=    0.0000 C=    0.0000
 XYZ=   -5.7763   -0.9646    6.6037 Q=   -0.8200 A=    0.0000 R=    0.0000 C=    0.0000
 XYZ=   -5.3898   -0.4257    5.8552 Q=    0.4100 A=    0.0000 R=    0.0000 C=    0.0000
 XYZ=   -5.0372   -1.3078    7.1834 Q=    0.4100 A=    0.0000 R=    0.0000 C=    0.0000
 XYZ=    0.0085   -7.0674    5.4612 Q=   -0.8200 A=    0.0000 R=    0.0000 C=    0.0000
 XYZ=   -0.8861   -6.8948    5.8735 Q=    0.4100 A=    0.0000 R=    0.0000 C=    0.0000
 XYZ=   -0.0883   -7.7338    4.7219 Q=    0.4100 A=    0.0000 R=    0.0000 C=    0.0000
 XYZ=    2.2635    6.2295    6.1109 Q=   -0.8200 A=    0.0000 R=    0.0000 C=    0.0000
 XYZ=    1.8469    6.4738    5.2353 Q=    0.4100 A=    0.0000 R=    0.0000 C=    0.0000
 XYZ=    1.5474    6.1072    6.7982 Q=    0.4100 A=    0.0000 R=    0.0000 C=    0.0000
 XYZ=   -6.0744    3.7638   -4.9404 Q=   -0.8200 A=    0.0000 R=    0.0000 C=    0.0000
 XYZ=   -6.3532    4.2743   -5.7538 Q=    0.4100 A=    0.0000 R=    0.0000 C=    0.0000
 XYZ=   -5.6076    2.9240   -5.2178 Q=    0.4100 A=    0.0000 R=    0.0000 C=    0.0000
 XYZ=   -5.6053   -5.9467    4.8939 Q=   -0.8200 A=    0.0000 R=    0.0000 C=    0.0000
 XYZ=   -5.1070   -5.3483    4.2665 Q=    0.4100 A=    0.0000 R=    0.0000 C=    0.0000
 XYZ=   -6.3738   -5.4460    5.2924 Q=    0.4100 A=    0.0000 R=    0.0000 C=    0.0000
 XYZ=    4.2169    4.9386    5.6636 Q=   -0.8200 A=    0.0000 R=    0.0000 C=    0.0000
 XYZ=    4.8421    5.3642    6.3179 Q=    0.4100 A=    0.0000 R=    0.0000 C=    0.0000
 XYZ=    3.3145    5.3628    5.7405 Q=    0.4100 A=    0.0000 R=    0.0000 C=    0.0000
 XYZ=   -5.0116   -7.3876    0.0470 Q=   -0.8200 A=    0.0000 R=    0.0000 C=    0.0000
 XYZ=   -5.8426   -7.3740    0.6031 Q=    0.4100 A=    0.0000 R=    0.0000 C=    0.0000
 XYZ=   -5.0652   -8.1358   -0.6143 Q=    0.4100 A=    0.0000 R=    0.0000 C=    0.0000
 XYZ=    3.3386    2.1684   -8.1237 Q=   -0.8200 A=    0.0000 R=    0.0000 C=    0.0000
 XYZ=    4.2920    2.4640   -8.0619 Q=    0.4100 A=    0.0000 R=    0.0000 C=    0.0000
 XYZ=    3.1425    1.8688   -9.0573 Q=    0.4100 A=    0.0000 R=    0.0000 C=    0.0000
 XYZ=    7.1552    2.1878    3.9894 Q=   -0.8200 A=    0.0000 R=    0.0000 C=    0.0000
 XYZ=    6.7782    2.8118    3.3049 Q=    0.4100 A=    0.0000 R=    0.0000 C=    0.0000
 XYZ=    6.4302    1.5888    4.3295 Q=    0.4100 A=    0.0000 R=    0.0000 C=    0.0000
 XYZ=   -4.9445   -6.1816   -4.9081 Q=   -0.8200 A=    0.0000 R=    0.0000 C=    0.0000
 XYZ=   -5.4365   -5.3286   -4.7339 Q=    0.4100 A=    0.0000 R=    0.0000 C=    0.0000
 XYZ=   -5.2389   -6.8762   -4.2517 Q=    0.4100 A=    0.0000 R=    0.0000 C=    0.0000
 XYZ=    2.0764    4.1709   -7.8531 Q=   -0.8200 A=    0.0000 R=    0.0000 C=    0.0000
 XYZ=    2.2953    4.7459   -7.0647 Q=    0.4100 A=    0.0000 R=    0.0000 C=    0.0000
 XYZ=    2.7392    3.4247   -7.9157 Q=    0.4100 A=    0.0000 R=    0.0000 C=    0.0000
 XYZ=    5.9457   -6.9923   -1.2419 Q=   -0.8200 A=    0.0000 R=    0.0000 C=    0.0000
 XYZ=    6.6319   -7.3978   -0.6379 Q=    0.4100 A=    0.0000 R=    0.0000 C=    0.0000
 XYZ=    6.3978   -6.4028   -1.9114 Q=    0.4100 A=    0.0000 R=    0.0000 C=    0.0000
 XYZ=   -6.0046    6.1374    0.2730 Q=   -0.8200 A=    0.0000 R=    0.0000 C=    0.0000
 XYZ=   -6.1147    6.3248   -0.7032 Q=    0.4100 A=    0.0000 R=    0.0000 C=    0.0000
 XYZ=   -6.5449    6.7925    0.8011 Q=    0.4100 A=    0.0000 R=    0.0000 C=    0.0000
 XYZ=   -2.0934   -8.4643   -5.9485 Q=   -0.8200 A=    0.0000 R=    0.0000 C=    0.0000
 XYZ=   -2.3595   -7.5105   -5.8092 Q=    0.4100 A=    0.0000 R=    0.0000 C=    0.0000
 XYZ=   -1.9530   -8.6320   -6.9243 Q=    0.4100 A=    0.0000 R=    0.0000 C=    0.0000
 XYZ=    0.2541    9.6264   -3.2562 Q=   -0.8200 A=    0.0000 R=    0.0000 C=    0.0000
 XYZ=   -0.5025   10.0036   -3.7904 Q=    0.4100 A=    0.0000 R=    0.0000 C=    0.0000
 XYZ=    0.4349    8.6881   -3.5510 Q=    0.4100 A=    0.0000 R=    0.0000 C=    0.0000
 XYZ=   -5.2531    2.8843   -7.6014 Q=   -0.8200 A=    0.0000 R=    0.0000 C=    0.0000
 XYZ=   -5.8873    2.2838   -8.0885 Q=    0.4100 A=    0.0000 R=    0.0000 C=    0.0000
 XYZ=   -5.0120    2.4720   -6.7228 Q=    0.4100 A=    0.0000 R=    0.0000 C=    0.0000
 XYZ=    7.7790   -4.2016   -0.7496 Q=   -0.8200 A=    0.0000 R=    0.0000 C=    0.0000
 XYZ=    8.7230   -4.5283   -0.7020 Q=    0.4100 A=    0.0000 R=    0.0000 C=    0.0000
 XYZ=    7.3100   -4.6476   -1.5119 Q=    0.4100 A=    0.0000 R=    0.0000 C=    0.0000
 XYZ=    3.9473   -0.0826    7.4856 Q=   -0.8200 A=    0.0000 R=    0.0000 C=    0.0000
 XYZ=    4.2131   -0.2308    8.4382 Q=    0.4100 A=    0.0000 R=    0.0000 C=    0.0000
 XYZ=    4.7214    0.2969    6.9788 Q=    0.4100 A=    0.0000 R=    0.0000 C=    0.0000
 XYZ=    0.1722    5.3659   -8.0446 Q=   -0.8200 A=    0.0000 R=    0.0000 C=    0.0000
 XYZ=   -0.5723    5.0315   -7.4667 Q=    0.4100 A=    0.0000 R=    0.0000 C=    0.0000
 XYZ=    0.9509    4.7419   -7.9795 Q=    0.4100 A=    0.0000 R=    0.0000 C=    0.0000
 XYZ=    7.1605   -6.3535    1.7867 Q=   -0.8200 A=    0.0000 R=    0.0000 C=    0.0000
 XYZ=    7.7984   -5.6076    1.5949 Q=    0.4100 A=    0.0000 R=    0.0000 C=    0.0000
 XYZ=    6.2287   -5.9927    1.8284 Q=    0.4100 A=    0.0000 R=    0.0000 C=    0.0000
 XYZ=   -7.9075    1.9585    3.1461 Q=   -0.8200 A=    0.0000 R=    0.0000 C=    0.0000
 XYZ=   -7.3484    2.6413    2.6757 Q=    0.4100 A=    0.0000 R=    0.0000 C=    0.0000
 XYZ=   -7.6092    1.8817    4.0975 Q=    0.4100 A=    0.0000 R=    0.0000 C=    0.0000
 XYZ=   -2.6940   -9.1779    2.8943 Q=   -0.8200 A=    0.0000 R=    0.0000 C=    0.0000
 XYZ=   -1.7696   -8.9631    3.2095 Q=    0.4100 A=    0.0000 R=    0.0000 C=    0.0000
 XYZ=   -2.8803   -8.6827    2.0457 Q=    0.4100 A=    0.0000 R=    0.0000 C=    0.0000
 XYZ=   -3.7691   -2.3430    7.5132 Q=   -0.8200 A=    0.0000 R=    0.0000 C=    0.0000
 XYZ=   -2.9050   -1.9130    7.7750 Q=    0.4100 A=    0.0000 R=    0.0000 C=    0.0000
 XYZ=   -3.9135   -3.1641    8.0656 Q=    0.4100 A=    0.0000 R=    0.0000 C=    0.0000
 XYZ=   -1.1345   -9.9998   -4.4582 Q=   -0.8200 A=    0.0000 R=    0.0000 C=    0.0000
 XYZ=   -1.0501   -9.5268   -3.5811 Q=    0.4100 A=    0.0000 R=    0.0000 C=    0.0000
 XYZ=   -1.4435   -9.3541   -5.1565 Q=    0.4100 A=    0.0000 R=    0.0000 C=    0.0000
 XYZ=   -0.0985   -9.9094    0.5504 Q=   -0.8200 A=    0.0000 R=    0.0000 C=    0.0000
 XYZ=    0.5807  -10.3725    1.1200 Q=    0.4100 A=    0.0000 R=    0.0000 C=    0.0000
 XYZ=   -0.8268  -10.5516    0.3116 Q=    0.4100 A=    0.0000 R=    0.0000 C=    0.0000
 XYZ=    0.9713   10.0819   -1.0602 Q=   -0.8200 A=    0.0000 R=    0.0000 C=    0.0000
 XYZ=    0.8361    9.9441   -2.0414 Q=    0.4100 A=    0.0000 R=    0.0000 C=    0.0000
 XYZ=    1.5855    9.3767   -0.7061 Q=    0.4100 A=    0.0000 R=    0.0000 C=    0.0000
 XYZ=   -1.9384   -6.2096    6.5729 Q=   -0.8200 A=    0.0000 R=    0.0000 C=    0.0000
 XYZ=   -1.7508   -5.7963    7.4639 Q=    0.4100 A=    0.0000 R=    0.0000 C=    0.0000
 XYZ=   -2.8605   -6.5968    6.5726 Q=    0.4100 A=    0.0000 R=    0.0000 C=    0.0000
 XYZ=    4.3157   -4.2939   -8.0502 Q=   -0.8200 A=    0.0000 R=    0.0000 C=    0.0000
 XYZ=    5.0809   -4.2509   -8.6925 Q=    0.4100 A=    0.0000 R=    0.0000 C=    0.0000
 XYZ=    4.4457   -3.6117   -7.3306 Q=    0.4100 A=    0.0000 R=    0.0000 C=    0.0000
 XYZ=    1.9432   -7.0522   -7.8937 Q=   -0.8200 A=    0.0000 R=    0.0000 C=    0.0000
 XYZ=    1.5456   -7.2052   -6.9889 Q=    0.4100 A=    0.0000 R=    0.0000 C=    0.0000
 XYZ=    2.9396   -7.0143   -7.8177 Q=    0.4100 A=    0.0000 R=    0.0000 C=    0.0000
 XYZ=   -1.9988    1.2489    9.1134 Q=   -0.8200 A=    0.0000 R=    0.0000 C=    0.0000
 XYZ=   -1.7064    0.3472    8.7948 Q=    0.4100 A=    0.0000 R=    0.0000 C=    0.0000
 XYZ=   -2.9744    1.2249    9.3320 Q=    0.4100 A=    0.0000 R=    0.0000 C=    0.0000
 XYZ=   -6.7815   -5.5830   -2.4301 Q=   -0.8200 A=    0.0000 R=    0.0000 C=    0.0000
 XYZ=   -7.6848   -5.7157   -2.0222 Q=    0.4100 A=    0.0000 R=    0.0000 C=    0.0000
 XYZ=   -6.8614   -4.9897   -3.2312 Q=    0.4100 A=    0.0000 R=    0.0000 C=    0.0000
 XYZ=   -8.4833   -0.3298    2.4293 Q=   -0.8200 A=    0.0000 R=    0.0000 C=    0.0000
 XYZ=   -7.7496   -0.6439    1.8268 Q=    0.4100 A=    0.0000 R=    0.0000 C=    0.0000
 XYZ=   -8.3220    0.6243    2.6815 Q=    0.4100 A=    0.0000 R=    0.0000 C=    0.0000
 XYZ=   -3.0371    3.4057   -8.1762 Q=   -0.8200 A=    0.0000 R=    0.0000 C=    0.0000
 XYZ=   -3.9682    3.1041   -7.9709 Q=    0.4100 A=    0.0000 R=    0.0000 C=    0.0000
 XYZ=   -3.0171    4.4033   -8.2433 Q=    0.4100 A=    0.0000 R=    0.0000 C=    0.0000
 XYZ=    5.1105    5.4718   -5.1720 Q=   -0.8200 A=    0.0000 R=    0.0000 C=    0.0000
 XYZ=    5.6974    6.2289   -4.8848 Q=    0.4100 A=    0.0000 R=    0.0000 C=    0.0000
 XYZ=    5.5885    4.9205   -5.8559 Q=    0.4100 A=    0.0000 R=    0.0000 C=    0.0000
 XYZ=   -1.7386   -4.6574   -9.0010 Q=   -0.8200 A=    0.0000 R=    0.0000 C=    0.0000
 XYZ=   -1.2583   -3.9780   -9.5558 Q=    0.4100 A=    0.0000 R=    0.0000 C=    0.0000
 XYZ=   -1.1268   -4.9972   -8.2867 Q=    0.4100 A=    0.0000 R=    0.0000 C=    0.0000
 XYZ=   -7.6018    3.6475   -3.1880 Q=   -0.8200 A=    0.0000 R=    0.0000 C=    0.0000
 XYZ=   -6.8927    3.6988   -3.8913 Q=    0.4100 A=    0.0000 R=    0.0000 C=    0.0000
 XYZ=   -8.4467    3.2963   -3.5915 Q=    0.4100 A=    0.0000 R=    0.0000 C=    0.0000
 XYZ=   -6.2858    7.0322   -1.7982 Q=   -0.8200 A=    0.0000 R=    0.0000 C=    0.0000
 XYZ=   -5.5487    7.1101   -2.4696 Q=    0.4100 A=    0.0000 R=    0.0000 C=    0.0000
 XYZ=   -6.5798    7.9462   -1.5185 Q=    0.4100 A=    0.0000 R=    0.0000 C=    0.0000
 XYZ=    8.4640    0.6711    2.4578 Q=   -0.8200 A=    0.0000 R=    0.0000 C=    0.0000
 XYZ=    8.2656    1.5175    2.9520 Q=    0.4100 A=    0.0000 R=    0.0000 C=    0.0000
 XYZ=    7.6658    0.4063    1.9166 Q=    0.4100 A=    0.0000 R=    0.0000 C=    0.0000
 XYZ=   -5.8044   -7.4954   -3.1364 Q=   -0.8200 A=    0.0000 R=    0.0000 C=    0.0000
 XYZ=   -6.1996   -6.6222   -2.8515 Q=    0.4100 A=    0.0000 R=    0.0000 C=    0.0000
 XYZ=   -6.5357   -8.1149   -3.4219 Q=    0.4100 A=    0.0000 R=    0.0000 C=    0.0000
 XYZ=    0.2252   -3.7856    8.9901 Q=   -0.8200 A=    0.0000 R=    0.0000 C=    0.0000
 XYZ=    0.8648   -3.7589    8.2218 Q=    0.4100 A=    0.0000 R=    0.0000 C=    0.0000
 XYZ=    0.5406   -4.4545    9.6633 Q=    0.4100 A=    0.0000 R=    0.0000 C=    0.0000
 XYZ=    0.9240    5.6061    8.0379 Q=   -0.8200 A=    0.0000 R=    0.0000 C=    0.0000
 XYZ=    1.2240    6.0251    8.8948 Q=    0.4100 A=    0.0000 R=    0.0000 C=    0.0000
 XYZ=    1.2881    4.6768    7.9759 Q=    0.4100 A=    0.0000 R=    0.0000 C=    0.0000
 XYZ=    8.2152   -4.2116    1.6108 Q=   -0.8200 A=    0.0000 R=    0.0000 C=    0.0000
 XYZ=    7.5866   -4.0123    2.3626 Q=    0.4100 A=    0.0000 R=    0.0000 C=    0.0000
 XYZ=    7.7793   -3.9791    0.7414 Q=    0.4100 A=    0.0000 R=    0.0000 C=    0.0000
 XYZ=    2.0994   -4.6582   -8.4570 Q=   -0.8200 A=    0.0000 R=    0.0000 C=    0.0000
 XYZ=    1.8935   -5.6249   -8.3047 Q=    0.4100 A=    0.0000 R=    0.0000 C=    0.0000
 XYZ=    3.0397   -4.4691   -8.1738 Q=    0.4100 A=    0.0000 R=    0.0000 C=    0.0000
 XYZ=   -5.7370   -2.7138   -6.7893 Q=   -0.8200 A=    0.0000 R=    0.0000 C=    0.0000
 XYZ=   -5.4973   -3.2076   -7.6253 Q=    0.4100 A=    0.0000 R=    0.0000 C=    0.0000
 XYZ=   -5.8650   -1.7447   -6.9998 Q=    0.4100 A=    0.0000 R=    0.0000 C=    0.0000
 XYZ=   -7.0873   -2.7690    5.2813 Q=   -0.8200 A=    0.0000 R=    0.0000 C=    0.0000
 XYZ=   -7.9136   -2.2057    5.2753 Q=    0.4100 A=    0.0000 R=    0.0000 C=    0.0000
 XYZ=   -6.3010   -2.2044    5.5322 Q=    0.4100 A=    0.0000 R=    0.0000 C=    0.0000
 XYZ=    7.3047    0.9594   -5.3925 Q=   -0.8200 A=    0.0000 R=    0.0000 C=    0.0000
 XYZ=    7.5585    1.9254   -5.3417 Q=    0.4100 A=    0.0000 R=    0.0000 C=    0.0000
 XYZ=    8.1320    0.3998   -5.4440 Q=    0.4100 A=    0.0000 R=    0.0000 C=    0.0000
 XYZ=    6.7750    0.0057   -7.6661 Q=   -0.8200 A=    0.0000 R=    0.0000 C=    0.0000
 XYZ=    7.0427    0.3685   -6.7734 Q=    0.4100 A=    0.0000 R=    0.0000 C=    0.0000
 XYZ=    5.8809   -0.4361   -7.5918 Q=    0.4100 A=    0.0000 R=    0.0000 C=    0.0000
 XYZ=   -4.8476   -9.2182   -1.8279 Q=   -0.8200 A=    0.0000 R=    0.0000 C=    0.0000
 XYZ=   -5.6296   -9.8385   -1.8894 Q=    0.4100 A=    0.0000 R=    0.0000 C=    0.0000
 XYZ=   -5.0348   -8.3923   -2.3598 Q=    0.4100 A=    0.0000 R=    0.0000 C=    0.0000
 XYZ=   -5.7942    5.7914    4.1184 Q=   -0.8200 A=    0.0000 R=    0.0000 C=    0.0000
 XYZ=   -6.5231    6.2533    3.6131 Q=    0.4100 A=    0.0000 R=    0.0000 C=    0.0000
 XYZ=   -6.1865    5.0574    4.6729 Q=    0.4100 A=    0.0000 R=    0.0000 C=    0.0000
 XYZ=   -3.4213    9.9687   -1.7473 Q=   -0.8200 A=    0.0000 R=    0.0000 C=    0.0000
 XYZ=   -3.9329   10.4050   -1.0069 Q=    0.4100 A=    0.0000 R=    0.0000 C=    0.0000
 XYZ=   -2.6055    9.5273   -1.3736 Q=    0.4100 A=    0.0000 R=    0.0000 C=    0.0000
 XYZ=    7.3519    4.9996   -1.6573 Q=   -0.8200 A=    0.0000 R=    0.0000 C=    0.0000
 XYZ=    8.0773    4.4489   -1.2443 Q=    0.4100 A=    0.0000 R=    0.0000 C=    0.0000
 XYZ=    7.4741    5.9583   -1.4006 Q=    0.4100 A=    0.0000 R=    0.0000 C=    0.0000
 XYZ=   -2.7094  -10.1579   -2.0969 Q=   -0.8200 A=    0.0000 R=    0.0000 C=    0.0000
 XYZ=   -2.8651  -10.8659   -2.7858 Q=    0.4100 A=    0.0000 R=    0.0000 C=    0.0000
 XYZ=   -3.5379   -9.6078   -1.9913 Q=    0.4100 A=    0.0000 R=    0.0000 C=    0.0000
 XYZ=   -8.1674    5.1527    1.9388 Q=   -0.8200 A=    0.0000 R=    0.0000 C=    0.0000
 XYZ=   -7.4600    4.4501    1.8615 Q=    0.4100 A=    0.0000 R=    0.0000 C=    0.0000
 XYZ=   -9.0574    4.7164    2.0711 Q=    0.4100 A=    0.0000 R=    0.0000 C=    0.0000
 XYZ=    1.0743   -0.0667  -10.7396 Q=   -0.8200 A=    0.0000 R=    0.0000 C=    0.0000
 XYZ=    1.6331   -0.8915  -10.8257 Q=    0.4100 A=    0.0000 R=    0.0000 C=    0.0000
 XYZ=    0.2359   -0.2828  -10.2392 Q=    0.4100 A=    0.0000 R=    0.0000 C=    0.0000
 XYZ=   -6.9692    4.1096    5.6780 Q=   -0.8200 A=    0.0000 R=    0.0000 C=    0.0000
 XYZ=   -6.9791    4.1582    6.6768 Q=    0.4100 A=    0.0000 R=    0.0000 C=    0.0000
 XYZ=   -6.8899    3.1548    5.3915 Q=    0.4100 A=    0.0000 R=    0.0000 C=    0.0000
 XYZ=    8.8978   -0.7350   -1.6448 Q=   -0.8200 A=    0.0000 R=    0.0000 C=    0.0000
 XYZ=    8.4241    0.1364   -1.5170 Q=    0.4100 A=    0.0000 R=    0.0000 C=    0.0000
 XYZ=    9.1694   -1.1005   -0.7545 Q=    0.4100 A=    0.0000 R=    0.0000 C=    0.0000
 XYZ=   -0.6935    3.0857    9.3208 Q=   -0.8200 A=    0.0000 R=    0.0000 C=    0.0000
 XYZ=   -1.2904    2.2836    9.2998 Q=    0.4100 A=    0.0000 R=    0.0000 C=    0.0000
 XYZ=   -0.7004    3.4824   10.2387 Q=    0.4100 A=    0.0000 R=    0.0000 C=    0.0000
 XYZ=    6.6920    6.8126    2.9986 Q=   -0.8200 A=    0.0000 R=    0.0000 C=    0.0000
 XYZ=    5.7963    6.4403    3.2417 Q=    0.4100 A=    0.0000 R=    0.0000 C=    0.0000
 XYZ=    7.3488    6.0646    2.9024 Q=    0.4100 A=    0.0000 R=    0.0000 C=    0.0000
 XYZ=    8.0648    4.8670    3.0483 Q=   -0.8200 A=    0.0000 R=    0.0000 C=    0.0000
 XYZ=    8.3365    4.4918    3.9346 Q=    0.4100 A=    0.0000 R=    0.0000 C=    0.0000
 XYZ=    7.2855    4.3509    2.6926 Q=    0.4100 A=    0.0000 R=    0.0000 C=    0.0000
 XYZ=    4.4137   -1.2510  -10.0994 Q=   -0.8200 A=    0.0000 R=    0.0000 C=    0.0000
 XYZ=    4.3949   -0.9478   -9.1467 Q=    0.4100 A=    0.0000 R=    0.0000 C=    0.0000
 XYZ=    5.2804   -1.7145  -10.2845 Q=    0.4100 A=    0.0000 R=    0.0000 C=    0.0000
 XYZ=   -1.4500    5.1602    8.6504 Q=   -0.8200 A=    0.0000 R=    0.0000 C=    0.0000
 XYZ=   -0.6053    5.4981    8.2353 Q=    0.4100 A=    0.0000 R=    0.0000 C=    0.0000
 XYZ=   -1.3471    4.1909    8.8739 Q=    0.4100 A=    0.0000 R=    0.0000 C=    0.0000
 XYZ=   -3.6803    9.4113   -3.9410 Q=   -0.8200 A=    0.0000 R=    0.0000 C=    0.0000
 XYZ=   -3.6058    9.6066   -2.9631 Q=    0.4100 A=    0.0000 R=    0.0000 C=    0.0000
 XYZ=   -4.0047    8.4742   -4.0700 Q=    0.4100 A=    0.0000 R=    0.0000 C=    0.0000
 XYZ=   -2.4621    3.1441  -10.3308 Q=   -0.8200 A=    0.0000 R=    0.0000 C=    0.0000
 XYZ=   -2.4962    3.1705   -9.3318 Q=    0.4100 A=    0.0000 R=    0.0000 C=    0.0000
 XYZ=   -2.3187    2.2022  -10.6347 Q=    0.4100 A=    0.0000 R=    0.0000 C=    0.0000
 XYZ=    4.2430   -6.7344   -7.5977 Q=   -0.8200 A=    0.0000 R=    0.0000 C=    0.0000
 XYZ=    4.2261   -5.7430   -7.7275 Q=    0.4100 A=    0.0000 R=    0.0000 C=    0.0000
 XYZ=    5.1817   -7.0666   -7.6901 Q=    0.4100 A=    0.0000 R=    0.0000 C=    0.0000
 XYZ=   -4.8263    7.1355    5.8715 Q=   -0.8200 A=    0.0000 R=    0.0000 C=    0.0000
 XYZ=   -5.6187    7.5749    6.2945 Q=    0.4100 A=    0.0000 R=    0.0000 C=    0.0000
 XYZ=   -5.1353    6.5066    5.1580 Q=    0.4100 A=    0.0000 R=    0.0000 C=    0.0000
 XYZ=   -4.6015   -7.2262    6.5112 Q=   -0.8200 A=    0.0000 R=    0.0000 C=    0.0000
 XYZ=   -4.7475   -6.7341    5.6530 Q=    0.4100 A=    0.0000 R=    0.0000 C=    0.0000
 XYZ=   -5.0566   -6.7388    7.2565 Q=    0.4100 A=    0.0000 R=    0.0000 C=    0.0000
 XYZ=    6.3837    0.1279    6.7356 Q=   -0.8200 A=    0.0000 R=    0.0000 C=    0.0000
 XYZ=    6.2947    0.4824    7.6665 Q=    0.4100 A=    0.0000 R=    0.0000 C=    0.0000
 XYZ=    7.3263   -0.1677    6.5803 Q=    0.4100 A=    0.0000 R=    0.0000 C=    0.0000
 XYZ=   -1.7125   -5.1149    8.6328 Q=   -0.8200 A=    0.0000 R=    0.0000 C=    0.0000
 XYZ=   -0.8856   -4.5591    8.7178 Q=    0.4100 A=    0.0000 R=    0.0000 C=    0.0000
 XYZ=   -2.5162   -4.5198    8.6394 Q=    0.4100 A=    0.0000 R=    0.0000 C=    0.0000
 XYZ=    2.1899    3.5575   10.0730 Q=   -0.8200 A=    0.0000 R=    0.0000 C=    0.0000
 XYZ=    3.1257    3.9014    9.9951 Q=    0.4100 A=    0.0000 R=    0.0000 C=    0.0000
 XYZ=    1.9478    3.0587    9.2408 Q=    0.4100 A=    0.0000 R=    0.0000 C=    0.0000
 XYZ=   -5.3784   -6.0333   -7.5045 Q=   -0.8200 A=    0.0000 R=    0.0000 C=    0.0000
 XYZ=   -4.5119   -6.3257   -7.9091 Q=    0.4100 A=    0.0000 R=    0.0000 C=    0.0000
 XYZ=   -5.3307   -6.1280   -6.5101 Q=    0.4100 A=    0.0000 R=    0.0000 C=    0.0000
 XYZ=   -8.3760   -5.3662    1.5727 Q=   -0.8200 A=    0.0000 R=    0.0000 C=    0.0000
 XYZ=   -9.1888   -5.6221    1.0493 Q=    0.4100 A=    0.0000 R=    0.0000 C=    0.0000
 XYZ=   -8.1732   -4.3987    1.4214 Q=    0.4100 A=    0.0000 R=    0.0000 C=    0.0000
 XYZ=    8.9684    3.6326   -0.7208 Q=   -0.8200 A=    0.0000 R=    0.0000 C=    0.0000
 XYZ=    8.5830    2.7100   -0.7360 Q=    0.4100 A=    0.0000 R=    0.0000 C=    0.0000
 XYZ=    9.3272    3.8288    0.1918 Q=    0.4100 A=    0.0000 R=    0.0000 C=    0.0000
 XYZ=   -3.1701   -6.3809   -8.3515 Q=   -0.8200 A=    0.0000 R=    0.0000 C=    0.0000
 XYZ=   -2.6177   -5.5896   -8.6135 Q=    0.4100 A=    0.0000 R=    0.0000 C=    0.0000
 XYZ=   -2.7872   -7.2066   -8.7657 Q=    0.4100 A=    0.0000 R=    0.0000 C=    0.0000
 XYZ=    2.0639    3.7323  -10.3854 Q=   -0.8200 A=    0.0000 R=    0.0000 C=    0.0000
 XYZ=    2.2262    3.9319   -9.4191 Q=    0.4100 A=    0.0000 R=    0.0000 C=    0.0000
 XYZ=    2.1141    4.5799  -10.9138 Q=    0.4100 A=    0.0000 R=    0.0000 C=    0.0000
 XYZ=   -8.0551    5.9149   -2.9522 Q=   -0.8200 A=    0.0000 R=    0.0000 C=    0.0000
 XYZ=   -7.2923    6.3740   -2.4967 Q=    0.4100 A=    0.0000 R=    0.0000 C=    0.0000
 XYZ=   -7.8443    4.9430   -3.0573 Q=    0.4100 A=    0.0000 R=    0.0000 C=    0.0000
 XYZ=   -3.6492    6.7234    7.8122 Q=   -0.8200 A=    0.0000 R=    0.0000 C=    0.0000
 XYZ=   -4.1173    6.8752    6.9416 Q=    0.4100 A=    0.0000 R=    0.0000 C=    0.0000
 XYZ=   -3.0456    5.9301    7.7322 Q=    0.4100 A=    0.0000 R=    0.0000 C=    0.0000
 XYZ=    1.2959   -3.9323  -10.4824 Q=   -0.8200 A=    0.0000 R=    0.0000 C=    0.0000
 XYZ=    1.8273   -3.0935  -10.6012 Q=    0.4100 A=    0.0000 R=    0.0000 C=    0.0000
 XYZ=    1.4835   -4.3208   -9.5802 Q=    0.4100 A=    0.0000 R=    0.0000 C=    0.0000
 XYZ=   -6.7814   -7.2536    1.5450 Q=   -0.8200 A=    0.0000 R=    0.0000 C=    0.0000
 XYZ=   -7.3314   -6.4198    1.5935 Q=    0.4100 A=    0.0000 R=    0.0000 C=    0.0000
 XYZ=   -6.6049   -7.5907    2.4698 Q=    0.4100 A=    0.0000 R=    0.0000 C=    0.0000
 XYZ=   -2.4363    0.7588  -10.9376 Q=   -0.8200 A=    0.0000 R=    0.0000 C=    0.0000
 XYZ=   -2.0017   -0.0520  -10.5452 Q=    0.4100 A=    0.0000 R=    0.0000 C=    0.0000
 XYZ=   -3.4293    0.6808  -10.8485 Q=    0.4100 A=    0.0000 R=    0.0000 C=    0.0000
 XYZ=    5.8265    2.5413   -8.2454 Q=   -0.8200 A=    0.0000 R=    0.0000 C=    0.0000
 XYZ=    6.1026    3.3251   -7.6891 Q=    0.4100 A=    0.0000 R=    0.0000 C=    0.0000
 XYZ=    6.5631    1.8651   -8.2574 Q=    0.4100 A=    0.0000 R=    0.0000 C=    0.0000
 XYZ=   -8.0508    0.2778    6.4154 Q=   -0.8200 A=    0.0000 R=    0.0000 C=    0.0000
 XYZ=   -8.6912   -0.3368    5.9546 Q=    0.4100 A=    0.0000 R=    0.0000 C=    0.0000
 XYZ=   -7.1652   -0.1761    6.5135 Q=    0.4100 A=    0.0000 R=    0.0000 C=    0.0000
 XYZ=   -7.4704   -4.9460    5.5474 Q=   -0.8200 A=    0.0000 R=    0.0000 C=    0.0000
 XYZ=   -8.1296   -5.2385    4.8546 Q=    0.4100 A=    0.0000 R=    0.0000 C=    0.0000
 XYZ=   -7.1793   -4.0087    5.3557 Q=    0.4100 A=    0.0000 R=    0.0000 C=    0.0000
 XYZ=    7.6300   -7.9517    0.1676 Q=   -0.8200 A=    0.0000 R=    0.0000 C=    0.0000
 XYZ=    7.2454   -7.4837    0.9633 Q=    0.4100 A=    0.0000 R=    0.0000 C=    0.0000
 XYZ=    8.2009   -8.7138    0.4730 Q=    0.4100 A=    0.0000 R=    0.0000 C=    0.0000
 XYZ=    2.8127    1.5476  -10.5456 Q=   -0.8200 A=    0.0000 R=    0.0000 C=    0.0000
 XYZ=    2.5694    2.5169  -10.5080 Q=    0.4100 A=    0.0000 R=    0.0000 C=    0.0000
 XYZ=    1.9816    0.9985  -10.6333 Q=    0.4100 A=    0.0000 R=    0.0000 C=    0.0000
 XYZ=    0.1248    9.9569    3.2707 Q=   -0.8200 A=    0.0000 R=    0.0000 C=    0.0000
 XYZ=   -0.8292   10.0385    2.9819 Q=    0.4100 A=    0.0000 R=    0.0000 C=    0.0000
 XYZ=    0.1598    9.6678    4.2273 Q=    0.4100 A=    0.0000 R=    0.0000 C=    0.0000
 XYZ=   -2.2386    9.8081    2.9845 Q=   -0.8200 A=    0.0000 R=    0.0000 C=    0.0000
 XYZ=   -2.4986    9.6837    3.9421 Q=    0.4100 A=    0.0000 R=    0.0000 C=    0.0000
 XYZ=   -2.9065   10.3991    2.5320 Q=    0.4100 A=    0.0000 R=    0.0000 C=    0.0000
 XYZ=   -1.8611  -11.5167    0.0200 Q=   -0.8200 A=    0.0000 R=    0.0000 C=    0.0000
 XYZ=   -2.3607  -10.9942   -0.6709 Q=    0.4100 A=    0.0000 R=    0.0000 C=    0.0000
 XYZ=   -1.4700  -12.3358   -0.3997 Q=    0.4100 A=    0.0000 R=    0.0000 C=    0.0000
 XYZ=   -9.9856    0.9879   -0.6498 Q=   -0.8200 A=    0.0000 R=    0.0000 C=    0.0000
 XYZ=  -10.1269    1.9381   -0.9279 Q=    0.4100 A=    0.0000 R=    0.0000 C=    0.0000
 XYZ=   -9.0056    0.8080   -0.5639 Q=    0.4100 A=    0.0000 R=    0.0000 C=    0.0000
 XYZ=    8.4519    5.3727   -3.9029 Q=   -0.8200 A=    0.0000 R=    0.0000 C=    0.0000
 XYZ=    7.9340    5.1652   -3.0730 Q=    0.4100 A=    0.0000 R=    0.0000 C=    0.0000
 XYZ=    9.4253    5.4334   -3.6819 Q=    0.4100 A=    0.0000 R=    0.0000 C=    0.0000
 XYZ=   -0.7535   -2.0900   10.1660 Q=   -0.8200 A=    0.0000 R=    0.0000 C=    0.0000
 XYZ=   -0.1802   -2.7282    9.6522 Q=    0.4100 A=    0.0000 R=    0.0000 C=    0.0000
 XYZ=   -1.3210   -2.5989   10.8133 Q=    0.4100 A=    0.0000 R=    0.0000 C=    0.0000
 XYZ=    5.3672    2.7626    8.1141 Q=   -0.8200 A=    0.0000 R=    0.0000 C=    0.0000
 XYZ=    6.0593    3.2478    7.5798 Q=    0.4100 A=    0.0000 R=    0.0000 C=    0.0000
 XYZ=    4.8457    3.4194    8.6588 Q=    0.4100 A=    0.0000 R=    0.0000 C=    0.0000
 XYZ=   -6.5412    8.4596    1.6318 Q=   -0.8200 A=    0.0000 R=    0.0000 C=    0.0000
 XYZ=   -6.9910    7.9446    2.3616 Q=    0.4100 A=    0.0000 R=    0.0000 C=    0.0000
 XYZ=   -5.5864    8.6240    1.8797 Q=    0.4100 A=    0.0000 R=    0.0000 C=    0.0000
 XYZ=   -6.2812    4.9573   -7.0603 Q=   -0.8200 A=    0.0000 R=    0.0000 C=    0.0000
 XYZ=   -6.0961    5.7011   -7.7026 Q=    0.4100 A=    0.0000 R=    0.0000 C=    0.0000
 XYZ=   -5.8028    4.1317   -7.3597 Q=    0.4100 A=    0.0000 R=    0.0000 C=    0.0000
 XYZ=   -6.3635   -7.9792    3.8370 Q=   -0.8200 A=    0.0000 R=    0.0000 C=    0.0000
 XYZ=   -6.2756   -7.0975    4.3006 Q=    0.4100 A=    0.0000 R=    0.0000 C=    0.0000
 XYZ=   -5.5895   -8.5632    4.0820 Q=    0.4100 A=    0.0000 R=    0.0000 C=    0.0000
 XYZ=   -3.2059    5.5978   -8.2372 Q=   -0.8200 A=    0.0000 R=    0.0000 C=    0.0000
 XYZ=   -4.1322    5.6370   -8.6120 Q=    0.4100 A=    0.0000 R=    0.0000 C=    0.0000
 XYZ=   -2.6307    6.2731   -8.6989 Q=    0.4100 A=    0.0000 R=    0.0000 C=    0.0000
 XYZ=   -4.5906   -9.5494    4.2274 Q=   -0.8200 A=    0.0000 R=    0.0000 C=    0.0000
 XYZ=   -5.1581  -10.2206    3.7503 Q=    0.4100 A=    0.0000 R=    0.0000 C=    0.0000
 XYZ=   -3.7424   -9.4074    3.7172 Q=    0.4100 A=    0.0000 R=    0.0000 C=    0.0000
 XYZ=    8.5237    3.8344    5.0901 Q=   -0.8200 A=    0.0000 R=    0.0000 C=    0.0000
 XYZ=    8.0060    3.0604    4.7253 Q=    0.4100 A=    0.0000 R=    0.0000 C=    0.0000
 XYZ=    9.4567    3.5420    5.2999 Q=    0.4100 A=    0.0000 R=    0.0000 C=    0.0000
 XYZ=   -1.3924    8.4457    6.1763 Q=   -0.8200 A=    0.0000 R=    0.0000 C=    0.0000
 XYZ=   -2.2927    8.6343    5.7839 Q=    0.4100 A=    0.0000 R=    0.0000 C=    0.0000
 XYZ=   -1.5024    7.9710    7.0496 Q=    0.4100 A=    0.0000 R=    0.0000 C=    0.0000
 XYZ=   -0.9698   -3.1877  -10.7728 Q=   -0.8200 A=    0.0000 R=    0.0000 C=    0.0000
 XYZ=   -0.0109   -3.4377  -10.6380 Q=    0.4100 A=    0.0000 R=    0.0000 C=    0.0000
 XYZ=   -1.1548   -3.0918  -11.7508 Q=    0.4100 A=    0.0000 R=    0.0000 C=    0.0000
 XYZ=   -2.8117  -11.5431    2.1088 Q=   -0.8200 A=    0.0000 R=    0.0000 C=    0.0000
 XYZ=   -2.8110  -10.5567    2.2732 Q=    0.4100 A=    0.0000 R=    0.0000 C=    0.0000
 XYZ=   -2.3804  -11.7342    1.2270 Q=    0.4100 A=    0.0000 R=    0.0000 C=    0.0000
 XYZ=   -8.8660   -1.3257    4.7250 Q=   -0.8200 A=    0.0000 R=    0.0000 C=    0.0000
 XYZ=   -8.8715   -0.7068    3.9396 Q=    0.4100 A=    0.0000 R=    0.0000 C=    0.0000
 XYZ=   -9.5297   -2.0588    4.5763 Q=    0.4100 A=    0.0000 R=    0.0000 C=    0.0000
 XYZ=    0.5931    9.4940    5.5214 Q=   -0.8200 A=    0.0000 R=    0.0000 C=    0.0000
 XYZ=    1.4077    8.9150    5.5576 Q=    0.4100 A=    0.0000 R=    0.0000 C=    0.0000
 XYZ=   -0.2074    8.9605    5.7944 Q=    0.4100 A=    0.0000 R=    0.0000 C=    0.0000
 XYZ=    6.8593    4.3150   -6.6904 Q=   -0.8200 A=    0.0000 R=    0.0000 C=    0.0000
 XYZ=    7.2972    5.0519   -7.2055 Q=    0.4100 A=    0.0000 R=    0.0000 C=    0.0000
 XYZ=    7.5437    3.8471   -6.1311 Q=    0.4100 A=    0.0000 R=    0.0000 C=    0.0000
 XYZ=   -2.3664  -11.8714   -3.6730 Q=   -0.8200 A=    0.0000 R=    0.0000 C=    0.0000
 XYZ=   -1.8280  -11.0792   -3.9604 Q=    0.4100 A=    0.0000 R=    0.0000 C=    0.0000
 XYZ=   -2.9794  -12.1444   -4.4144 Q=    0.4100 A=    0.0000 R=    0.0000 C=    0.0000
 XYZ=   -3.4808    9.0765    4.9574 Q=   -0.8200 A=    0.0000 R=    0.0000 C=    0.0000
 XYZ=   -4.0882    8.3251    5.2157 Q=    0.4100 A=    0.0000 R=    0.0000 C=    0.0000
 XYZ=   -3.8964    9.9468    5.2216 Q=    0.4100 A=    0.0000 R=    0.0000 C=    0.0000
 XYZ=   -0.2222    6.3117  -10.1009 Q=   -0.8200 A=    0.0000 R=    0.0000 C=    0.0000
 XYZ=   -0.6643    5.6569  -10.7140 Q=    0.4100 A=    0.0000 R=    0.0000 C=    0.0000
 XYZ=   -0.0354    5.8719   -9.2224 Q=    0.4100 A=    0.0000 R=    0.0000 C=    0.0000
 XYZ=  -10.2736    2.0637    3.0023 Q=   -0.8200 A=    0.0000 R=    0.0000 C=    0.0000
 XYZ=   -9.2858    1.9097    3.0271 Q=    0.4100 A=    0.0000 R=    0.0000 C=    0.0000
 XYZ=  -10.7054    1.3661    2.4306 Q=    0.4100 A=    0.0000 R=    0.0000 C=    0.0000
 XYZ=    2.4080   -1.9626  -11.2258 Q=   -0.8200 A=    0.0000 R=    0.0000 C=    0.0000
 XYZ=    3.2427   -1.6950  -10.7444 Q=    0.4100 A=    0.0000 R=    0.0000 C=    0.0000
 XYZ=    2.4878   -1.7184  -12.1923 Q=    0.4100 A=    0.0000 R=    0.0000 C=    0.0000
 XYZ=   -7.5682    6.9231    3.1463 Q=   -0.8200 A=    0.0000 R=    0.0000 C=    0.0000
 XYZ=   -7.9608    6.7698    4.0532 Q=    0.4100 A=    0.0000 R=    0.0000 C=    0.0000
 XYZ=   -7.8615    6.1934    2.5285 Q=    0.4100 A=    0.0000 R=    0.0000 C=    0.0000
 XYZ=   -3.6625   -4.1967  -10.4944 Q=   -0.8200 A=    0.0000 R=    0.0000 C=    0.0000
 XYZ=   -2.8862   -4.3594   -9.8852 Q=    0.4100 A=    0.0000 R=    0.0000 C=    0.0000
 XYZ=   -3.3390   -4.1420  -11.4391 Q=    0.4100 A=    0.0000 R=    0.0000 C=    0.0000
 XYZ=    7.6431    7.3637   -1.2304 Q=   -0.8200 A=    0.0000 R=    0.0000 C=    0.0000
 XYZ=    7.2005    8.0173   -1.8443 Q=    0.4100 A=    0.0000 R=    0.0000 C=    0.0000
 XYZ=    7.5772    7.6937   -0.2887 Q=    0.4100 A=    0.0000 R=    0.0000 C=    0.0000
 XYZ=    0.8615   12.1943    0.0178 Q=   -0.8200 A=    0.0000 R=    0.0000 C=    0.0000
 XYZ=    1.6220   12.7840   -0.2541 Q=    0.4100 A=    0.0000 R=    0.0000 C=    0.0000
 XYZ=    0.9479   11.3080   -0.4372 Q=    0.4100 A=    0.0000 R=    0.0000 C=    0.0000
 XYZ=   -1.6152   10.9011   -4.4730 Q=   -0.8200 A=    0.0000 R=    0.0000 C=    0.0000
 XYZ=   -2.3861   10.3262   -4.1985 Q=    0.4100 A=    0.0000 R=    0.0000 C=    0.0000
 XYZ=   -1.8045   11.8518   -4.2273 Q=    0.4100 A=    0.0000 R=    0.0000 C=    0.0000
 XYZ=    7.2441    8.1458    0.8485 Q=   -0.8200 A=    0.0000 R=    0.0000 C=    0.0000
 XYZ=    7.5775    9.0424    1.1399 Q=    0.4100 A=    0.0000 R=    0.0000 C=    0.0000
 XYZ=    7.2759    7.5113    1.6208 Q=    0.4100 A=    0.0000 R=    0.0000 C=    0.0000
 XYZ=   10.1051   -0.8983    0.6698 Q=   -0.8200 A=    0.0000 R=    0.0000 C=    0.0000
 XYZ=   10.2138   -1.8097    1.0667 Q=    0.4100 A=    0.0000 R=    0.0000 C=    0.0000
 XYZ=    9.4682   -0.3658    1.2273 Q=    0.4100 A=    0.0000 R=    0.0000 C=    0.0000
 XYZ=   -0.5361  -11.5906   -5.9967 Q=   -0.8200 A=    0.0000 R=    0.0000 C=    0.0000
 XYZ=   -0.4737  -12.4896   -5.5631 Q=    0.4100 A=    0.0000 R=    0.0000 C=    0.0000
 XYZ=   -0.7267  -10.8977   -5.3013 Q=    0.4100 A=    0.0000 R=    0.0000 C=    0.0000
 XYZ=    8.6947   -5.6427   -4.0802 Q=   -0.8200 A=    0.0000 R=    0.0000 C=    0.0000
 XYZ=    8.8837   -5.3756   -5.0252 Q=    0.4100 A=    0.0000 R=    0.0000 C=    0.0000
 XYZ=    9.2086   -6.4716   -3.8591 Q=    0.4100 A=    0.0000 R=    0.0000 C=    0.0000
 XYZ=   -5.3689   -4.0554   -8.7970 Q=   -0.8200 A=    0.0000 R=    0.0000 C=    0.0000
 XYZ=   -4.6303   -4.1023   -9.4695 Q=    0.4100 A=    0.0000 R=    0.0000 C=    0.0000
 XYZ=   -5.4825   -4.9496   -8.3638 Q=    0.4100 A=    0.0000 R=    0.0000 C=    0.0000
 XYZ=   -3.9934   -4.3006    9.0000 Q=   -0.8200 A=    0.0000 R=    0.0000 C=    0.0000
 XYZ=   -4.6860   -4.9345    8.6560 Q=    0.4100 A=    0.0000 R=    0.0000 C=    0.0000
 XYZ=   -3.8808   -4.4323    9.9849 Q=    0.4100 A=    0.0000 R=    0.0000 C=    0.0000
 XYZ=    9.2284   -0.4428   -5.3931 Q=   -0.8200 A=    0.0000 R=    0.0000 C=    0.0000
 XYZ=    9.4873   -0.4422   -4.4272 Q=    0.4100 A=    0.0000 R=    0.0000 C=    0.0000
 XYZ=    9.6952   -1.1922   -5.8627 Q=    0.4100 A=    0.0000 R=    0.0000 C=    0.0000
 XYZ=   10.4538   -0.3514   -3.3727 Q=   -0.8200 A=    0.0000 R=    0.0000 C=    0.0000
 XYZ=    9.7725   -0.5730   -2.6750 Q=    0.4100 A=    0.0000 R=    0.0000 C=    0.0000
 XYZ=   11.3117   -0.8199   -3.1616 Q=    0.4100 A=    0.0000 R=    0.0000 C=    0.0000
 XYZ=    7.3974   -3.7877   -7.3295 Q=   -0.8200 A=    0.0000 R=    0.0000 C=    0.0000
 XYZ=    8.1088   -4.3834   -6.9565 Q=    0.4100 A=    0.0000 R=    0.0000 C=    0.0000
 XYZ=    7.1250   -4.1192   -8.2328 Q=    0.4100 A=    0.0000 R=    0.0000 C=    0.0000
 XYZ=    6.5509    1.0003    8.9670 Q=   -0.8200 A=    0.0000 R=    0.0000 C=    0.0000
 XYZ=    5.9883    1.7595    8.6395 Q=    0.4100 A=    0.0000 R=    0.0000 C=    0.0000
 XYZ=    7.4831    1.3230    9.1313 Q=    0.4100 A=    0.0000 R=    0.0000 C=    0.0000
 XYZ=   -0.5085    1.0503  -12.1605 Q=   -0.8200 A=    0.0000 R=    0.0000 C=    0.0000
 XYZ=    0.2147    0.5833  -11.6516 Q=    0.4100 A=    0.0000 R=    0.0000 C=    0.0000
 XYZ=   -1.3566    1.0273  -11.6312 Q=    0.4100 A=    0.0000 R=    0.0000 C=    0.0000
 XYZ=  -10.5988    0.1994    1.3999 Q=   -0.8200 A=    0.0000 R=    0.0000 C=    0.0000
 XYZ=  -10.4191    0.3973    0.4363 Q=    0.4100 A=    0.0000 R=    0.0000 C=    0.0000
 XYZ=   -9.7549   -0.1072    1.8402 Q=    0.4100 A=    0.0000 R=    0.0000 C=    0.0000
 XYZ=    8.6191    3.3223   -5.3210 Q=   -0.8200 A=    0.0000 R=    0.0000 C=    0.0000
 XYZ=    8.6810    4.2115   -4.8676 Q=    0.4100 A=    0.0000 R=    0.0000 C=    0.0000
 XYZ=    9.2615    2.6854   -4.8947 Q=    0.4100 A=    0.0000 R=    0.0000 C=    0.0000
 XYZ=    7.8984   -1.7982   -8.6199 Q=   -0.8200 A=    0.0000 R=    0.0000 C=    0.0000
 XYZ=    7.4477   -0.9396   -8.3759 Q=    0.4100 A=    0.0000 R=    0.0000 C=    0.0000
 XYZ=    7.6012   -2.5201   -7.9949 Q=    0.4100 A=    0.0000 R=    0.0000 C=    0.0000
 XYZ=    5.6695    5.8666    7.2841 Q=   -0.8200 A=    0.0000 R=    0.0000 C=    0.0000
 XYZ=    6.2395    6.6774    7.4178 Q=    0.4100 A=    0.0000 R=    0.0000 C=    0.0000
 XYZ=    6.2512    5.0546    7.2365 Q=    0.4100 A=    0.0000 R=    0.0000 C=    0.0000
 XYZ=    7.0824    4.0026    7.1123 Q=   -0.8200 A=    0.0000 R=    0.0000 C=    0.0000
 XYZ=    7.5878    3.9980    6.2494 Q=    0.4100 A=    0.0000 R=    0.0000 C=    0.0000
 XYZ=    7.7251    4.0797    7.8746 Q=    0.4100 A=    0.0000 R=    0.0000 C=    0.0000
 XYZ=   10.4229    1.8247    2.0685 Q=   -0.8200 A=    0.0000 R=    0.0000 C=    0.0000
 XYZ=    9.5784    1.2924    2.1285 Q=    0.4100 A=    0.0000 R=    0.0000 C=    0.0000
 XYZ=   10.2011    2.7817    1.8817 Q=    0.4100 A=    0.0000 R=    0.0000 C=    0.0000
 XYZ=    9.6248    4.2247    1.4765 Q=   -0.8200 A=    0.0000 R=    0.0000 C=    0.0000
 XYZ=    8.9710    4.5419    2.1635 Q=    0.4100 A=    0.0000 R=    0.0000 C=    0.0000
 XYZ=   10.4986    4.6933    1.6064 Q=    0.4100 A=    0.0000 R=    0.0000 C=    0.0000
 XYZ=   10.4147   -3.2900    1.8198 Q=   -0.8200 A=    0.0000 R=    0.0000 C=    0.0000
 XYZ=    9.5455   -3.7841    1.7988 Q=    0.4100 A=    0.0000 R=    0.0000 C=    0.0000
 XYZ=   11.1494   -3.8948    1.5123 Q=    0.4100 A=    0.0000 R=    0.0000 C=    0.0000
 XYZ=    1.5567   -8.6453   -9.6069 Q=   -0.8200 A=    0.0000 R=    0.0000 C=    0.0000
 XYZ=    1.5967   -8.3301  -10.5551 Q=    0.4100 A=    0.0000 R=    0.0000 C=    0.0000
 XYZ=    1.8313   -7.9019   -8.9968 Q=    0.4100 A=    0.0000 R=    0.0000 C=    0.0000
 XYZ=   -9.7409    5.4931   -1.5163 Q=   -0.8200 A=    0.0000 R=    0.0000 C=    0.0000
 XYZ=   -8.9742    5.7185   -2.1175 Q=    0.4100 A=    0.0000 R=    0.0000 C=    0.0000
 XYZ=   -9.5743    5.8737   -0.6067 Q=    0.4100 A=    0.0000 R=    0.0000 C=    0.0000
 XYZ=   -6.7712    1.6101   -8.7677 Q=   -0.8200 A=    0.0000 R=    0.0000 C=    0.0000
 XYZ=   -7.6125    2.1101   -8.5623 Q=    0.4100 A=    0.0000 R=    0.0000 C=    0.0000
 XYZ=   -6.9743    0.6341   -8.8466 Q=    0.4100 A=    0.0000 R=    0.0000 C=    0.0000
 XYZ=   -6.8760    9.3605   -0.5667 Q=   -0.8200 A=    0.0000 R=    0.0000 C=    0.0000
 XYZ=   -7.6271   10.0165   -0.6407 Q=    0.4100 A=    0.0000 R=    0.0000 C=    0.0000
 XYZ=   -6.7706    9.0807    0.3876 Q=    0.4100 A=    0.0000 R=    0.0000 C=    0.0000
 XYZ=    1.4141    5.8640   10.3321 Q=   -0.8200 A=    0.0000 R=    0.0000 C=    0.0000
 XYZ=    0.5736    5.9548   10.8661 Q=    0.4100 A=    0.0000 R=    0.0000 C=    0.0000
 XYZ=    1.5433    4.9064   10.0742 Q=    0.4100 A=    0.0000 R=    0.0000 C=    0.0000
 XYZ=    0.9152   12.0938    2.5244 Q=   -0.8200 A=    0.0000 R=    0.0000 C=    0.0000
 XYZ=    0.7656   11.1737    2.8867 Q=    0.4100 A=    0.0000 R=    0.0000 C=    0.0000
 XYZ=    0.9346   12.0594    1.5252 Q=    0.4100 A=    0.0000 R=    0.0000 C=    0.0000
 XYZ=   -9.2694   -5.4236   -1.9415 Q=   -0.8200 A=    0.0000 R=    0.0000 C=    0.0000
 XYZ=   -9.4234   -4.5590   -2.4199 Q=    0.4100 A=    0.0000 R=    0.0000 C=    0.0000
 XYZ=   -9.5019   -6.1852   -2.5465 Q=    0.4100 A=    0.0000 R=    0.0000 C=    0.0000
 XYZ=   -9.3199   -5.5352    3.8681 Q=   -0.8200 A=    0.0000 R=    0.0000 C=    0.0000
 XYZ=   -8.8795   -5.5226    2.9704 Q=    0.4100 A=    0.0000 R=    0.0000 C=    0.0000
 XYZ=   -9.8382   -6.3840    3.9732 Q=    0.4100 A=    0.0000 R=    0.0000 C=    0.0000
 XYZ=    9.5972   -7.6070   -1.2438 Q=   -0.8200 A=    0.0000 R=    0.0000 C=    0.0000
 XYZ=    8.7032   -7.6270   -0.7963 Q=    0.4100 A=    0.0000 R=    0.0000 C=    0.0000
 XYZ=   10.1400   -8.3898   -0.9393 Q=    0.4100 A=    0.0000 R=    0.0000 C=    0.0000
 XYZ=   -2.1480   -8.9904   -8.2055 Q=   -0.8200 A=    0.0000 R=    0.0000 C=    0.0000
 XYZ=   -1.2875   -9.2020   -8.6690 Q=    0.4100 A=    0.0000 R=    0.0000 C=    0.0000
 XYZ=   -2.5582   -9.8354   -7.8622 Q=    0.4100 A=    0.0000 R=    0.0000 C=    0.0000
 XYZ=   -4.6656    0.5028  -10.7798 Q=   -0.8200 A=    0.0000 R=    0.0000 C=    0.0000
 XYZ=   -5.1963    1.3434  -10.8888 Q=    0.4100 A=    0.0000 R=    0.0000 C=    0.0000
 XYZ=   -5.2034   -0.2753  -11.1044 Q=    0.4100 A=    0.0000 R=    0.0000 C=    0.0000
 XYZ=   -6.8581    3.9126    7.9977 Q=   -0.8200 A=    0.0000 R=    0.0000 C=    0.0000
 XYZ=   -6.7994    3.4283    8.8706 Q=    0.4100 A=    0.0000 R=    0.0000 C=    0.0000
 XYZ=   -6.6779    4.8854    8.1435 Q=    0.4100 A=    0.0000 R=    0.0000 C=    0.0000
 XYZ=    7.4108    6.9730   -5.2601 Q=   -0.8200 A=    0.0000 R=    0.0000 C=    0.0000
 XYZ=    7.9465    6.3174   -4.7280 Q=    0.4100 A=    0.0000 R=    0.0000 C=    0.0000
 XYZ=    7.3838    6.6829   -6.2167 Q=    0.4100 A=    0.0000 R=    0.0000 C=    0.0000
 XYZ=    4.8934   -0.3538   10.0089 Q=   -0.8200 A=    0.0000 R=    0.0000 C=    0.0000
 XYZ=    5.5028    0.2650    9.5131 Q=    0.4100 A=    0.0000 R=    0.0000 C=    0.0000
 XYZ=    5.3015   -1.2661   10.0440 Q=    0.4100 A=    0.0000 R=    0.0000 C=    0.0000
 XYZ=   10.0307   -5.2279   -1.2121 Q=   -0.8200 A=    0.0000 R=    0.0000 C=    0.0000
 XYZ=    9.8772   -5.0031   -2.1743 Q=    0.4100 A=    0.0000 R=    0.0000 C=    0.0000
 XYZ=    9.9336   -6.2145   -1.0808 Q=    0.4100 A=    0.0000 R=    0.0000 C=    0.0000
 XYZ=   -1.0976    4.7056  -11.4560 Q=   -0.8200 A=    0.0000 R=    0.0000 C=    0.0000
 XYZ=   -1.6697    4.0112  -11.0196 Q=    0.4100 A=    0.0000 R=    0.0000 C=    0.0000
 XYZ=   -0.5906    4.2924  -12.2125 Q=    0.4100 A=    0.0000 R=    0.0000 C=    0.0000
 XYZ=   -1.0821   -6.4740   10.5791 Q=   -0.8200 A=    0.0000 R=    0.0000 C=    0.0000
 XYZ=   -1.2465   -6.1469    9.6484 Q=    0.4100 A=    0.0000 R=    0.0000 C=    0.0000
 XYZ=   -0.1635   -6.2056   10.8692 Q=    0.4100 A=    0.0000 R=    0.0000 C=    0.0000
 XYZ=    8.9531   -7.8281    3.1042 Q=   -0.8200 A=    0.0000 R=    0.0000 C=    0.0000
 XYZ=    8.3325   -7.1676    2.6817 Q=    0.4100 A=    0.0000 R=    0.0000 C=    0.0000
 XYZ=    8.4849   -8.2912    3.8568 Q=    0.4100 A=    0.0000 R=    0.0000 C=    0.0000
 XYZ=    0.1978   -0.7555   12.0292 Q=   -0.8200 A=    0.0000 R=    0.0000 C=    0.0000
 XYZ=   -0.0150   -1.1396   11.1307 Q=    0.4100 A=    0.0000 R=    0.0000 C=    0.0000
 XYZ=   -0.5067   -0.0929   12.2837 Q=    0.4100 A=    0.0000 R=    0.0000 C=    0.0000
 XYZ=    4.2666    0.2480  -11.8405 Q=   -0.8200 A=    0.0000 R=    0.0000 C=    0.0000
 XYZ=    3.7953    1.0121  -11.4000 Q=    0.4100 A=    0.0000 R=    0.0000 C=    0.0000
 XYZ=    4.3958   -0.4903  -11.1785 Q=    0.4100 A=    0.0000 R=    0.0000 C=    0.0000
 XYZ=   -8.9167   -8.2499    0.9631 Q=   -0.8200 A=    0.0000 R=    0.0000 C=    0.0000
 XYZ=   -9.5889   -7.5823    0.6431 Q=    0.4100 A=    0.0000 R=    0.0000 C=    0.0000
 XYZ=   -8.0996   -7.7718    1.2855 Q=    0.4100 A=    0.0000 R=    0.0000 C=    0.0000
 XYZ=    4.3042    4.2961    9.6391 Q=   -0.8200 A=    0.0000 R=    0.0000 C=    0.0000
 XYZ=    5.0307    4.1362   10.3074 Q=    0.4100 A=    0.0000 R=    0.0000 C=    0.0000
 XYZ=    4.2704    5.2690    9.4099 Q=    0.4100 A=    0.0000 R=    0.0000 C=    0.0000
 XYZ=   -2.5646    6.4338   10.4480 Q=   -0.8200 A=    0.0000 R=    0.0000 C=    0.0000
 XYZ=   -2.8730    7.3407   10.1605 Q=    0.4100 A=    0.0000 R=    0.0000 C=    0.0000
 XYZ=   -2.0184    6.0210    9.7192 Q=    0.4100 A=    0.0000 R=    0.0000 C=    0.0000
 XYZ=   -8.2741    1.9679    8.0574 Q=   -0.8200 A=    0.0000 R=    0.0000 C=    0.0000
 XYZ=   -8.2486    1.1439    7.4913 Q=    0.4100 A=    0.0000 R=    0.0000 C=    0.0000
 XYZ=   -7.8060    2.7131    7.5824 Q=    0.4100 A=    0.0000 R=    0.0000 C=    0.0000
 XYZ=   -5.6625    6.1159    8.8927 Q=   -0.8200 A=    0.0000 R=    0.0000 C=    0.0000
 XYZ=   -6.0384    6.9985    9.1749 Q=    0.4100 A=    0.0000 R=    0.0000 C=    0.0000
 XYZ=   -4.7914    6.2594    8.4230 Q=    0.4100 A=    0.0000 R=    0.0000 C=    0.0000
 XYZ=   -8.4490    4.1768   -6.7779 Q=   -0.8200 A=    0.0000 R=    0.0000 C=    0.0000
 XYZ=   -8.8886    4.7099   -6.0551 Q=    0.4100 A=    0.0000 R=    0.0000 C=    0.0000
 XYZ=   -7.5328    4.5393   -6.9491 Q=    0.4100 A=    0.0000 R=    0.0000 C=    0.0000
 XYZ=    9.9622    2.0048   -3.8800 Q=   -0.8200 A=    0.0000 R=    0.0000 C=    0.0000
 XYZ=   10.2486    2.5323   -3.0802 Q=    0.4100 A=    0.0000 R=    0.0000 C=    0.0000
 XYZ=   10.1495    1.0349   -3.7240 Q=    0.4100 A=    0.0000 R=    0.0000 C=    0.0000
 XYZ=   -3.8172   11.0840    1.8466 Q=   -0.8200 A=    0.0000 R=    0.0000 C=    0.0000
 XYZ=   -4.4967   11.3530    2.5293 Q=    0.4100 A=    0.0000 R=    0.0000 C=    0.0000
 XYZ=   -4.2178   11.1522    0.9329 Q=    0.4100 A=    0.0000 R=    0.0000 C=    0.0000
 XYZ=   -4.5705   11.0269   -5.2084 Q=   -0.8200 A=    0.0000 R=    0.0000 C=    0.0000
 XYZ=   -4.1974   10.2956   -4.6375 Q=    0.4100 A=    0.0000 R=    0.0000 C=    0.0000
 XYZ=   -3.8371   11.4287   -5.7568 Q=    0.4100 A=    0.0000 R=    0.0000 C=    0.0000
 XYZ=   -6.8676   -2.6440  -10.0009 Q=   -0.8200 A=    0.0000 R=    0.0000 C=    0.0000
 XYZ=   -6.3205   -3.1715   -9.3509 Q=    0.4100 A=    0.0000 R=    0.0000 C=    0.0000
 XYZ=   -7.5768   -3.2303  -10.3924 Q=    0.4100 A=    0.0000 R=    0.0000 C=    0.0000
 XYZ=   -5.0572   11.1183   -0.1610 Q=   -0.8200 A=    0.0000 R=    0.0000 C=    0.0000
 XYZ=   -5.2728   12.0070   -0.5657 Q=    0.4100 A=    0.0000 R=    0.0000 C=    0.0000
 XYZ=   -5.7850   10.4678   -0.3782 Q=    0.4100 A=    0.0000 R=    0.0000 C=    0.0000
 XYZ=   -4.7479    4.2021  -10.8670 Q=   -0.8200 A=    0.0000 R=    0.0000 C=    0.0000
 XYZ=   -5.4356    3.4762  -10.8835 Q=    0.4100 A=    0.0000 R=    0.0000 C=    0.0000
 XYZ=   -3.8521    3.8079  -10.6614 Q=    0.4100 A=    0.0000 R=    0.0000 C=    0.0000
 XYZ=   -9.9257    3.1542   -3.8608 Q=   -0.8200 A=    0.0000 R=    0.0000 C=    0.0000
 XYZ=  -10.0498    3.1886   -2.8691 Q=    0.4100 A=    0.0000 R=    0.0000 C=    0.0000
 XYZ=  -10.8022    2.9560   -4.2997 Q=    0.4100 A=    0.0000 R=    0.0000 C=    0.0000
 XYZ=   -7.4774   -0.5881   -8.9646 Q=   -0.8200 A=    0.0000 R=    0.0000 C=    0.0000
 XYZ=   -8.3435   -0.5596   -8.4654 Q=    0.4100 A=    0.0000 R=    0.0000 C=    0.0000
 XYZ=   -7.3521   -1.4969   -9.3628 Q=    0.4100 A=    0.0000 R=    0.0000 C=    0.0000
 XYZ=   -7.5730   -8.7633   -3.5595 Q=   -0.8200 A=    0.0000 R=    0.0000 C=    0.0000
 XYZ=   -7.3746   -9.4922   -2.9043 Q=    0.4100 A=    0.0000 R=    0.0000 C=    0.0000
 XYZ=   -8.0919   -9.1380   -4.3279 Q=    0.4100 A=    0.0000 R=    0.0000 C=    0.0000
 XYZ=   10.8256    3.2915   -2.1731 Q=   -0.8200 A=    0.0000 R=    0.0000 C=    0.0000
 XYZ=   10.0878    3.6823   -1.6226 Q=    0.4100 A=    0.0000 R=    0.0000 C=    0.0000
 XYZ=   11.3901    2.6972   -1.6002 Q=    0.4100 A=    0.0000 R=    0.0000 C=    0.0000
 XYZ=   -4.1909  -10.0155    6.5919 Q=   -0.8200 A=    0.0000 R=    0.0000 C=    0.0000
 XYZ=   -4.0944   -9.8270    5.6145 Q=    0.4100 A=    0.0000 R=    0.0000 C=    0.0000
 XYZ=   -4.1942   -9.1534    7.0988 Q=    0.4100 A=    0.0000 R=    0.0000 C=    0.0000
 XYZ=    1.1999    2.7277   12.0890 Q=   -0.8200 A=    0.0000 R=    0.0000 C=    0.0000
 XYZ=    1.6535    2.9118   11.2170 Q=    0.4100 A=    0.0000 R=    0.0000 C=    0.0000
 XYZ=    1.6529    1.9616   12.5451 Q=    0.4100 A=    0.0000 R=    0.0000 C=    0.0000
 XYZ=   -8.2631    6.4982    5.5507 Q=   -0.8200 A=    0.0000 R=    0.0000 C=    0.0000
 XYZ=   -8.0541    5.6076    5.9548 Q=    0.4100 A=    0.0000 R=    0.0000 C=    0.0000
 XYZ=   -7.7687    7.2129    6.0454 Q=    0.4100 A=    0.0000 R=    0.0000 C=    0.0000
 XYZ=    0.4717    3.1425  -12.5490 Q=   -0.8200 A=    0.0000 R=    0.0000 C=    0.0000
 XYZ=    0.9887    3.4286  -11.7422 Q=    0.4100 A=    0.0000 R=    0.0000 C=    0.0000
 XYZ=    0.0790    2.2368  -12.3892 Q=    0.4100 A=    0.0000 R=    0.0000 C=    0.0000
 XYZ=    7.6837    8.0524    4.9462 Q=   -0.8200 A=    0.0000 R=    0.0000 C=    0.0000
 XYZ=    8.4506    7.4576    5.1874 Q=    0.4100 A=    0.0000 R=    0.0000 C=    0.0000
 XYZ=    7.2357    7.7017    4.1238 Q=    0.4100 A=    0.0000 R=    0.0000 C=    0.0000
 XYZ=    5.0829    6.5533    9.3588 Q=   -0.8200 A=    0.0000 R=    0.0000 C=    0.0000
 XYZ=    6.0025    6.7339    9.7079 Q=    0.4100 A=    0.0000 R=    0.0000 C=    0.0000
 XYZ=    5.1385    6.2827    8.3977 Q=    0.4100 A=    0.0000 R=    0.0000 C=    0.0000
 XYZ=   -7.4772   -4.9720    7.9711 Q=   -0.8200 A=    0.0000 R=    0.0000 C=    0.0000
 XYZ=   -7.6002   -5.0484    6.9816 Q=    0.4100 A=    0.0000 R=    0.0000 C=    0.0000
 XYZ=   -7.5017   -4.0081    8.2365 Q=    0.4100 A=    0.0000 R=    0.0000 C=    0.0000
 XYZ=   -9.4667    5.1845   -4.9509 Q=   -0.8200 A=    0.0000 R=    0.0000 C=    0.0000
 XYZ=   -9.0068    5.8166   -4.3271 Q=    0.4100 A=    0.0000 R=    0.0000 C=    0.0000
 XYZ=   -9.6557    4.3253   -4.4753 Q=    0.4100 A=    0.0000 R=    0.0000 C=    0.0000
 XYZ=   -5.4751   -6.1159    8.4165 Q=   -0.8200 A=    0.0000 R=    0.0000 C=    0.0000
 XYZ=   -5.4766   -6.6089    9.2866 Q=    0.4100 A=    0.0000 R=    0.0000 C=    0.0000
 XYZ=   -6.3539   -5.6548    8.2932 Q=    0.4100 A=    0.0000 R=    0.0000 C=    0.0000
 XYZ=  -10.2507    4.2531    2.4432 Q=   -0.8200 A=    0.0000 R=    0.0000 C=    0.0000
 XYZ=  -11.1765    4.4471    2.1187 Q=    0.4100 A=    0.0000 R=    0.0000 C=    0.0000
 XYZ=  -10.2023    3.3082    2.7672 Q=    0.4100 A=    0.0000 R=    0.0000 C=    0.0000
[...]
    38  H    0.000000   0.000000   0.000000   0.000000   0.000000   0.000874
    39  O    0.000000   0.000000  -0.004291  -0.000132   0.003877   0.000000
    40  H    0.000000   0.000000   0.000017   0.000000   0.000013   0.000000
    41  H    0.000000   0.000000   0.000200  -0.000002   0.000048   0.000000
    42  O    0.000000   0.000000   0.000000   0.000000   0.000000  -0.031920
    43  H    0.000000   0.000000   0.000000   0.000000   0.000000   0.002898
    44  H    0.000000   0.000000   0.000000   0.000000   0.000000   0.025200
    45  O    0.000441   0.027168   0.000000   0.000000   0.000000   0.000000
    46  H    0.000024  -0.000177   0.000000   0.000000   0.000000   0.000000
    47  H   -0.000006  -0.001995   0.000000   0.000000   0.000000   0.000000
    48  O    0.000000   0.000000   0.000234  -0.000022   0.000128  -0.001273
    49  H    0.000000   0.000000   0.000002   0.000001   0.000001   0.000031
    50  H    0.000000   0.000000  -0.000018   0.000001   0.000001   0.000062
              31         32         33         34         35         36
     1  C    0.000016  -0.000002   0.000336   0.000034  -0.000142  -0.000070
     2  H    0.000000   0.000000  -0.000002   0.000000   0.000000   0.000000
     3  H    0.000000   0.000000   0.000000   0.000000   0.000000   0.000000
     4  C   -0.000039  -0.000007   0.003060  -0.000262  -0.000743  -0.000239
     5  H    0.000000   0.000000   0.000000   0.000000   0.000000   0.000000
     6  C    0.000049   0.000006   0.004957   0.000061  -0.000754  -0.000275
     7  H    0.000000   0.000000  -0.000070   0.000001  -0.000025  -0.000003
     8  O   -0.000001   0.000002  -0.011681   0.000143   0.002406   0.000111
     9  O   -0.000001   0.000000  -0.006375  -0.000509   0.006294   0.000008
    10  H    0.000000   0.000000  -0.000372   0.000021  -0.000303   0.000001
    11  H    0.000000   0.000000   0.005998  -0.000191  -0.001101   0.000000
    12  O    0.000215   0.000004  -0.064620  -0.000564   0.074680  -0.000895
    13  H   -0.000001   0.000000   0.005624  -0.000086  -0.003473  -0.000008
    14  H   -0.000048   0.000000   0.004470   0.000029  -0.003244  -0.000056
    15  O    0.000000   0.000000   0.000002  -0.000001   0.000000   0.000000
    16  H    0.000000   0.000000   0.000000   0.000000   0.000000   0.000000
    17  H    0.000000   0.000000   0.000000   0.000000   0.000000   0.000000
    18  O    0.015559  -0.000558  -0.010313   0.000857   0.000808  -0.000955
    19  H    0.000690   0.000034   0.001867  -0.000281   0.000983   0.000114
    20  H    0.000540  -0.000028  -0.000332  -0.000048  -0.000138  -0.000135
    21  O    0.000000   0.000000   0.000019  -0.000020   0.000009   0.000000
    22  H    0.000000   0.000000  -0.000005   0.000000   0.000000   0.000000
    23  H    0.000000   0.000000   0.000024  -0.000017   0.000001   0.000000
    24  O    0.000000   0.000000   0.000000   0.000000   0.000000   0.000000
    25  H    0.000000   0.000000   0.000000   0.000000   0.000000   0.000000
    26  H    0.000000   0.000000   0.000000   0.000000   0.000000   0.000000
    27  O    0.000000   0.000000   0.000615  -0.000007  -0.000102   0.000003
    28  H    0.000000   0.000000  -0.000018   0.000000   0.000003   0.000000
    29  H    0.000000   0.000000   0.000318  -0.000002  -0.000011   0.000000
    30  O    0.184959   0.193248   0.000008   0.000000  -0.000001  -0.072785
    31  H    0.281890  -0.005707   0.000023   0.000000   0.000001   0.004368
    32  H   -0.005707   0.159768   0.000000   0.000000   0.000000   0.002004
    33  O    0.000023   0.000000   9.074203   0.195181   0.069807   0.000002
    34  H    0.000000   0.000000   0.195181   0.174183  -0.003362   0.000000
    35  H    0.000001   0.000000   0.069807  -0.003362   0.200712   0.000004
    36  O    0.004368   0.002004   0.000002   0.000000   0.000004   8.862762
    37  H   -0.003274  -0.000134   0.000000   0.000000   0.000000   0.163490
    38  H   -0.000074  -0.000064   0.000000   0.000000   0.000000   0.210713
    39  O    0.000000   0.000000  -0.076605   0.000848   0.003525   0.000000
    40  H    0.000000   0.000000   0.000983   0.000007  -0.000031   0.000000
    41  H    0.000000   0.000000   0.060673  -0.003201  -0.000871   0.000000
    42  O    0.007095   0.000876  -0.000369   0.000027   0.000033  -0.000372
    43  H    0.005077  -0.001061  -0.000094  -0.000007  -0.000009  -0.000017
    44  H    0.002662  -0.000654   0.000008   0.000000   0.000000   0.000252
    45  O    0.000000   0.000000   0.000000   0.000000   0.000000   0.000000
    46  H    0.000000   0.000000   0.000000   0.000000   0.000000   0.000000
    47  H    0.000000   0.000000   0.000000   0.000000   0.000000   0.000000
    48  O    0.000522   0.000015   0.000015   0.000008  -0.001264   0.001479
    49  H   -0.000060   0.000000  -0.000053   0.000000   0.000031   0.001976
    50  H   -0.000022   0.000000  -0.000119   0.000003   0.000016  -0.000143
              37         38         39         40         41         42
     1  C    0.000010   0.000001  -0.000231   0.000015  -0.000092  -0.000093
     2  H    0.000000   0.000000   0.000000   0.000000   0.000000  -0.000001
     3  H    0.000000   0.000000   0.000000   0.000000   0.000000   0.000000
     4  C    0.000005   0.000008   0.008248   0.000096  -0.000315   0.000430
     5  H    0.000000   0.000000   0.000000   0.000000   0.000000   0.000000
     6  C    0.000029   0.000004   0.002540  -0.000198  -0.000689  -0.000197
     7  H    0.000000   0.000000  -0.000637   0.000001   0.000011   0.000000
     8  O   -0.000002   0.000000  -0.002294  -0.000063  -0.001525  -0.000133
     9  O    0.000000   0.000000  -0.112228   0.002430   0.017339   0.000038
    10  H    0.000000   0.000000   0.000977  -0.000099  -0.000681  -0.000002
    11  H    0.000000   0.000000   0.064486   0.000233  -0.004688  -0.000001
    12  O    0.000015   0.000008  -0.015890   0.000027   0.009326  -0.000407
    13  H    0.000000   0.000000   0.008428  -0.000009  -0.000863   0.000039
    14  H    0.000005   0.000001   0.000115   0.000001  -0.000083  -0.000032
    15  O    0.000000   0.000000  -0.000003   0.000000   0.000000   0.000000
    16  H    0.000000   0.000000   0.000000   0.000000   0.000000   0.000000
    17  H    0.000000   0.000000   0.000000   0.000000   0.000000   0.000000
    18  O    0.000296   0.000044   0.000164  -0.000001   0.000104  -0.074547
    19  H   -0.000004  -0.000001   0.000001   0.000000  -0.000048   0.003039
    20  H    0.000008   0.000000  -0.000009   0.000000   0.000000   0.001942
    21  O    0.000000   0.000000  -0.000004   0.000001   0.000003  -0.000008
    22  H    0.000000   0.000000  -0.000001   0.000000   0.000000   0.000000
    23  H    0.000000   0.000000   0.000045  -0.000002   0.000001   0.000000
    24  O    0.000000   0.000000   0.000000   0.000000   0.000000   0.000000
    25  H    0.000000   0.000000   0.000000   0.000000   0.000000   0.000000
    26  H    0.000000   0.000000   0.000000   0.000000   0.000000   0.000000
    27  O    0.000000   0.000000  -0.004291   0.000017   0.000200   0.000000
    28  H    0.000000   0.000000  -0.000132   0.000000  -0.000002   0.000000
    29  H    0.000000   0.000000   0.003877   0.000013   0.000048   0.000000
    30  O   -0.003056   0.000874   0.000000   0.000000   0.000000  -0.031920
    31  H   -0.003274  -0.000074   0.000000   0.000000   0.000000   0.007095
    32  H   -0.000134  -0.000064   0.000000   0.000000   0.000000   0.000876
    33  O    0.000000   0.000000  -0.076605   0.000983   0.060673  -0.000369
    34  H    0.000000   0.000000   0.000848   0.000007  -0.003201   0.000027
    35  H    0.000000   0.000000   0.003525  -0.000031  -0.000871   0.000033
    36  O    0.163490   0.210713   0.000000   0.000000   0.000000  -0.000372
    37  H    0.277492  -0.005017   0.000000   0.000000   0.000000   0.000122
    38  H   -0.005017   0.221851   0.000000   0.000000   0.000000  -0.000002
    39  O    0.000000   0.000000   9.029430   0.193688   0.104939  -0.000002
    40  H    0.000000   0.000000   0.193688   0.132282  -0.000364   0.000000
    41  H    0.000000   0.000000   0.104939  -0.000364   0.244026   0.000001
    42  O    0.000122  -0.000002  -0.000002   0.000000   0.000001   9.011388
    43  H    0.000037   0.000000   0.000000   0.000000   0.000000   0.124589
    44  H    0.000154  -0.000001   0.000000   0.000000   0.000000   0.175494
    45  O    0.000000   0.000000   0.000000   0.000000   0.000000   0.000000
    46  H    0.000000   0.000000   0.000000   0.000000   0.000000   0.000000
    47  H    0.000000   0.000000   0.000000   0.000000   0.000000   0.000000
    48  O   -0.000278  -0.000039   0.000130   0.000002  -0.000025   0.000085
    49  H   -0.000038  -0.000018   0.000001   0.000000   0.000000  -0.000004
    50  H    0.000003   0.000001   0.000000   0.000000   0.000000  -0.000008
              43         44         45         46         47         48
     1  C    0.000113   0.000014   0.000774  -0.000050   0.000076   0.000034
     2  H   -0.000001   0.000000   0.000000   0.000000   0.000000   0.000000
     3  H    0.000000   0.000000  -0.000005   0.000000   0.000000   0.000000
     4  C   -0.000118  -0.000009  -0.001077   0.000788  -0.000421  -0.000563
     5  H    0.000000   0.000000   0.000011  -0.000006   0.000000   0.000000
     6  C    0.000295   0.000007  -0.000281  -0.000480   0.000237   0.000040
     7  H    0.000000   0.000000  -0.000001   0.000000   0.000000   0.000019
     8  O   -0.000105  -0.000003   0.000002   0.000000   0.000000  -0.000414
     9  O   -0.000002  -0.000001  -0.000003   0.000000   0.000000  -0.001087
    10  H    0.000001   0.000000   0.000001   0.000000   0.000000   0.000030
    11  H    0.000000   0.000000   0.000000   0.000000   0.000000  -0.000032
    12  O    0.000099  -0.000009   0.000000   0.000000   0.000000  -0.071301
    13  H   -0.000004   0.000000   0.000000   0.000000   0.000000   0.004879
    14  H   -0.000005   0.000000   0.000000   0.000000   0.000000  -0.005265
    15  O    0.000000   0.000000  -0.002422   0.000031   0.000003   0.000000
    16  H    0.000000   0.000000   0.000041   0.000000   0.000000   0.000000
    17  H    0.000000   0.000000  -0.000182  -0.000002  -0.000017   0.000000
    18  O    0.045193  -0.004576   0.000000   0.000000   0.000000  -0.031902
    19  H   -0.001510   0.000039   0.000000   0.000000   0.000000   0.000925
    20  H    0.001735   0.000173   0.000000   0.000000   0.000000   0.002124
    21  O   -0.000001   0.000000  -0.000016   0.000000   0.000000   0.000000
    22  H    0.000000   0.000000  -0.000003   0.000000   0.000000   0.000000
    23  H    0.000000   0.000000   0.000000   0.000000   0.000000   0.000000
    24  O    0.000000   0.000000  -0.062377   0.001037   0.000007   0.000000
    25  H    0.000000   0.000000   0.000441   0.000024  -0.000006   0.000000
    26  H    0.000000   0.000000   0.027168  -0.000177  -0.001995   0.000000
    27  O    0.000000   0.000000   0.000000   0.000000   0.000000   0.000234
    28  H    0.000000   0.000000   0.000000   0.000000   0.000000  -0.000022
    29  H    0.000000   0.000000   0.000000   0.000000   0.000000   0.000128
    30  O    0.002898   0.025200   0.000000   0.000000   0.000000  -0.001273
    31  H    0.005077   0.002662   0.000000   0.000000   0.000000   0.000522
    32  H   -0.001061  -0.000654   0.000000   0.000000   0.000000   0.000015
    33  O   -0.000094   0.000008   0.000000   0.000000   0.000000   0.000015
    34  H   -0.000007   0.000000   0.000000   0.000000   0.000000   0.000008
    35  H   -0.000009   0.000000   0.000000   0.000000   0.000000  -0.001264
    36  O   -0.000017   0.000252   0.000000   0.000000   0.000000   0.001479
    37  H    0.000037   0.000154   0.000000   0.000000   0.000000  -0.000278
    38  H    0.000000  -0.000001   0.000000   0.000000   0.000000  -0.000039
    39  O    0.000000   0.000000   0.000000   0.000000   0.000000   0.000130
    40  H    0.000000   0.000000   0.000000   0.000000   0.000000   0.000002
    41  H    0.000000   0.000000   0.000000   0.000000   0.000000  -0.000025
    42  O    0.124589   0.175494   0.000000   0.000000   0.000000   0.000085
    43  H    0.209904   0.001448   0.000000   0.000000   0.000000   0.000256
    44  H    0.001448   0.220951   0.000000   0.000000   0.000000  -0.000009
    45  O    0.000000   0.000000   8.745435   0.227105   0.218607   0.000000
    46  H    0.000000   0.000000   0.227105   0.207131  -0.011328   0.000000
    47  H    0.000000   0.000000   0.218607  -0.011328   0.184887   0.000000
    48  O    0.000256  -0.000009   0.000000   0.000000   0.000000   8.926460
    49  H    0.000002   0.000000   0.000000   0.000000   0.000000   0.200472
    50  H    0.000002   0.000000   0.000000   0.000000   0.000000   0.197291
              49         50
     1  C   -0.000004  -0.000001
     2  H    0.000000   0.000000
     3  H    0.000000   0.000000
     4  C    0.000013   0.000048
     5  H    0.000000   0.000000
     6  C   -0.000047   0.000168
     7  H    0.000000   0.000000
     8  O   -0.000006  -0.000032
     9  O   -0.000054   0.000081
    10  H    0.000001   0.000000
    11  H    0.000000  -0.000002
    12  O   -0.002090  -0.001978
    13  H   -0.000139   0.000073
    14  H    0.001556  -0.001149
    15  O    0.000000   0.000000
    16  H    0.000000   0.000000
    17  H    0.000000   0.000000
    18  O    0.000934  -0.000941
    19  H   -0.000455  -0.000494
    20  H   -0.000263   0.000505
    21  O    0.000000   0.000000
    22  H    0.000000   0.000000
    23  H    0.000000   0.000000
    24  O    0.000000   0.000000
    25  H    0.000000   0.000000
    26  H    0.000000   0.000000
    27  O    0.000002  -0.000018
    28  H    0.000001   0.000001
    29  H    0.000001   0.000001
    30  O    0.000031   0.000062
    31  H   -0.000060  -0.000022
    32  H    0.000000   0.000000
    33  O   -0.000053  -0.000119
    34  H    0.000000   0.000003
    35  H    0.000031   0.000016
    36  O    0.001976  -0.000143
    37  H   -0.000038   0.000003
    38  H   -0.000018   0.000001
    39  O    0.000001   0.000000
    40  H    0.000000   0.000000
    41  H    0.000000   0.000000
    42  O   -0.000004  -0.000008
    43  H    0.000002   0.000002
    44  H    0.000000   0.000000
    45  O    0.000000   0.000000
    46  H    0.000000   0.000000
    47  H    0.000000   0.000000
    48  O    0.200472   0.197291
    49  H    0.185260  -0.009673
    50  H   -0.009673   0.170766
 Mulliken charges:
               1
     1  C   -0.401981
     2  H    0.272367
     3  H    0.231001
     4  C   -0.154980
     5  H    0.223878
     6  C    0.031605
     7  H    0.208598
     8  O   -0.266868
     9  O   -1.413988
    10  H    0.511129
    11  H    0.657675
    12  O   -1.364438
    13  H    0.693322
    14  H    0.631250
    15  O   -1.279710
    16  H    0.613548
    17  H    0.626614
    18  O   -1.195366
    19  H    0.631575
    20  H    0.605094
    21  O   -1.100133
    22  H    0.640339
    23  H    0.470325
    24  O   -1.163254
    25  H    0.573240
    26  H    0.594839
    27  O   -1.250809
    28  H    0.604597
    29  H    0.659171
    30  O   -1.144062
    31  H    0.505559
    32  H    0.652258
    33  O   -1.257165
    34  H    0.637155
    35  H    0.656260
    36  O   -1.171334
    37  H    0.570136
    38  H    0.571712
    39  O   -1.209114
    40  H    0.670972
    41  H    0.576775
    42  O   -1.217099
    43  H    0.611283
    44  H    0.578859
    45  O   -1.153217
    46  H    0.575926
    47  H    0.609950
    48  O   -1.221675
    49  H    0.622624
    50  H    0.645560
 Sum of Mulliken charges =   0.00000
 Mulliken charges with hydrogens summed into heavy atoms:
               1
     1  C    0.101387
     4  C    0.068898
     6  C    0.240203
     8  O   -0.266868
     9  O   -0.245184
    12  O   -0.039867
    15  O   -0.039548
    18  O    0.041303
    21  O    0.010531
    24  O    0.004824
    27  O    0.012959
    30  O    0.013755
    33  O    0.036250
    36  O   -0.029486
    39  O    0.038633
    42  O   -0.026957
    45  O    0.032659
    48  O    0.046508
 Electronic spatial extent (au):  <R**2>=          11865.3040
 Charge=              0.0000 electrons
 Dipole moment (field-independent basis, Debye):
    X=              3.8161    Y=             -1.8235    Z=             -3.0549  Tot=              5.2173
 Quadrupole moment (field-independent basis, Debye-Ang):
   XX=            -13.9889   YY=           -126.4008   ZZ=           -139.6966
   XY=             -1.9160   XZ=             -8.9585   YZ=             27.5079
 Traceless Quadrupole moment (field-independent basis, Debye-Ang):
   XX=             79.3732   YY=            -33.0387   ZZ=            -46.3345
   XY=             -1.9160   XZ=             -8.9585   YZ=             27.5079
 Octapole moment (field-independent basis, Debye-Ang**2):
  XXX=            101.2253  YYY=           -114.2958  ZZZ=            -67.2333  XYY=             -0.5207
  XXY=            -16.2843  XXZ=            -39.5446  XZZ=             44.0122  YZZ=             24.2807
  YYZ=             36.4164  XYZ=            -39.5443
 Hexadecapole moment (field-independent basis, Debye-Ang**3):
 XXXX=          -4518.2650 YYYY=          -2803.8990 ZZZZ=          -2195.2154 XXXY=             30.3588
 XXXZ=            524.9943 YYYX=            135.8239 YYYZ=            308.3572 ZZZX=            -41.0051
 ZZZY=            329.7831 XXYY=          -1247.8251 XXZZ=          -1493.3161 YYZZ=          -1082.2167
 XXYZ=           -162.9062 YYXZ=            206.6212 ZZXY=             50.6162
 N-N= 1.145799969680D+03 E-N=-6.258723149491D+03  KE= 1.249672051733D+03
 Leave Link  601 at Fri Sep 14 20:05:29 2018, MaxMem=    33554432 cpu:        11.2
 (Enter /usr/local/pacerepov1/gaussian/G09D01LINDA/g09/l9999.exe)

 Test job not archived.
 1\1\GINC-RICH133-G13-27-R\SP\RLC-wPBE TD-FC\6-31+G(d)\C3H32O15\ROOT\14
 -Sep-2018\0\\#p td=(nstates=15)/6-31+g(d) lc-wpbe charge\\Acroleina in
  Water\\0,1\C,0,0.485154,0.480443,-1.430142\H,0,1.461403,0.187773,-1.0
 55732\H,0,0.429244,0.878853,-2.437062\C,0,-0.605127,0.346563,-0.658432
 \H,0,-1.591686,0.632893,-1.012412\C,0,-0.508516,-0.199107,0.712798\H,0
 ,-1.458487,-0.272107,1.272438\O,0,0.544883,-0.561317,1.236519\O,0,-0.7
 1503,-0.743012,3.078328\H,0,-0.39533,-0.195122,2.305248\H,0,-0.28533,-
 0.414962,3.919628\O,0,0.55423,-2.626932,3.128678\H,0,-0.07533,-1.85061
 2,3.096378\H,0,0.03605,-3.470592,3.269148\O,0,1.99896,3.839138,0.12614
 8\H,0,2.69589,4.361547,-0.365172\H,0,1.09091,4.165198,-0.136882\O,0,2.
 28184,-4.180293,1.969738\H,0,1.63078,-3.460572,2.210968\H,0,2.60446,-4
 .630562,2.802328\O,0,3.30593,2.173148,1.106498\H,0,2.77129,2.880318,0.
 643718\H,0,2.70626,1.637698,1.701228\O,0,0.01002,4.908808,-0.753122\H,
 0,0.5564,5.732868,-0.902812\H,0,-0.94288,5.092308,-0.994672\O,0,-2.866
 85,-1.089412,3.852748\H,0,-2.73204,-1.634512,4.680248\H,0,-1.97808,-0.
 864512,3.453338\O,0,2.03829,-5.706672,-0.572832\H,0,1.98199,-5.134263,
 0.245218\H,0,2.97189,-5.685732,-0.930632\O,0,2.30785,-1.578802,4.48015
 8\H,0,3.09703,-1.328262,3.919388\H,0,1.6551,-2.094712,3.925348\O,0,-0.
 25986,-6.144212,-0.282672\H,0,0.73309,-6.253702,-0.328742\H,0,-0.70246
 ,-6.994863,-0.566472\O,0,0.51922,0.199608,5.003848\H,0,0.95305,0.93757
 8,5.520778\H,0,1.21234,-0.466582,4.728518\O,0,4.04107,-3.880092,0.3672
 88\H,0,3.27973,-3.950682,1.011828\H,0,3.8729,-4.480932,-0.414232\O,0,-
 2.51599,5.358888,-0.744372\H,0,-3.18236,4.625207,-0.877472\H,0,-2.4521
 7,5.578568,0.229128\O,0,-0.2483,-4.740092,3.546128\H,0,-0.37852,-5.480
 863,2.887068\H,0,0.51025,-4.967022,4.156968\\Version=EM64L-G09RevD.01\
 State=1-A\HF=-1758.9153363\RMSD=9.707e-09\PG=C01 [X(C3H32O15)]\\@


 "MATHEMATICS IS THE ART OF GIVING THE SAME NAME
 TO DIFFERENT THINGS."
                    - H. POINCARE
 Job cpu time:       0 days  2 hours 48 minutes  0.7 seconds.
 File lengths (MBytes):  RWF=    792 Int=      0 D2E=      0 Chk=     96 Scr=      2
 Normal termination of Gaussian 09 at Fri Sep 14 20:05:37 2018.
