 Entering Gaussian System, Link 0=g09
 Input=Acroleina_water_15_24c.gjf
 Output=Acroleina_water_15_24c.log
 Initial command:
 /usr/local/pacerepov1/gaussian/G09D01LINDA/g09/l1.exe /nv/hp18/holiveira7/scratch/22411845/Gau-27879.inp -scrdir=/nv/hp18/holiveira7/scratch/22411845/
 Entering Link 1 = /usr/local/pacerepov1/gaussian/G09D01LINDA/g09/l1.exe PID=     27884.
  
 Copyright (c) 1988,1990,1992,1993,1995,1998,2003,2009,2013,
            Gaussian, Inc.  All Rights Reserved.
  
 This is part of the Gaussian(R) 09 program.  It is based on
 the Gaussian(R) 03 system (copyright 2003, Gaussian, Inc.),
 the Gaussian(R) 98 system (copyright 1998, Gaussian, Inc.),
 the Gaussian(R) 94 system (copyright 1995, Gaussian, Inc.),
 the Gaussian 92(TM) system (copyright 1992, Gaussian, Inc.),
 the Gaussian 90(TM) system (copyright 1990, Gaussian, Inc.),
 the Gaussian 88(TM) system (copyright 1988, Gaussian, Inc.),
 the Gaussian 86(TM) system (copyright 1986, Carnegie Mellon
 University), and the Gaussian 82(TM) system (copyright 1983,
 Carnegie Mellon University). Gaussian is a federally registered
 trademark of Gaussian, Inc.
  
 This software contains proprietary and confidential information,
 including trade secrets, belonging to Gaussian, Inc.
  
 This software is provided under written license and may be
 used, copied, transmitted, or stored only in accord with that
 written license.
  
 The following legend is applicable only to US Government
 contracts under FAR:
  
                    RESTRICTED RIGHTS LEGEND
  
 Use, reproduction and disclosure by the US Government is
 subject to restrictions as set forth in subparagraphs (a)
 and (c) of the Commercial Computer Software - Restricted
 Rights clause in FAR 52.227-19.
  
 Gaussian, Inc.
 340 Quinnipiac St., Bldg. 40, Wallingford CT 06492
  
  
 ---------------------------------------------------------------
 Warning -- This program may not be used in any manner that
 competes with the business of Gaussian, Inc. or will provide
 assistance to any competitor of Gaussian, Inc.  The licensee
 of this program is prohibited from giving any competitor of
 Gaussian, Inc. access to this program.  By using this program,
 the user acknowledges that Gaussian, Inc. is engaged in the
 business of creating and licensing software in the field of
 computational chemistry and represents and warrants to the
 licensee that it is not a competitor of Gaussian, Inc. and that
 it will not use this program in any manner prohibited above.
 ---------------------------------------------------------------
  

 Cite this work as:
 Gaussian 09, Revision D.01,
 M. J. Frisch, G. W. Trucks, H. B. Schlegel, G. E. Scuseria, 
 M. A. Robb, J. R. Cheeseman, G. Scalmani, V. Barone, B. Mennucci, 
 G. A. Petersson, H. Nakatsuji, M. Caricato, X. Li, H. P. Hratchian, 
 A. F. Izmaylov, J. Bloino, G. Zheng, J. L. Sonnenberg, M. Hada, 
 M. Ehara, K. Toyota, R. Fukuda, J. Hasegawa, M. Ishida, T. Nakajima, 
 Y. Honda, O. Kitao, H. Nakai, T. Vreven, J. A. Montgomery, Jr., 
 J. E. Peralta, F. Ogliaro, M. Bearpark, J. J. Heyd, E. Brothers, 
 K. N. Kudin, V. N. Staroverov, T. Keith, R. Kobayashi, J. Normand, 
 K. Raghavachari, A. Rendell, J. C. Burant, S. S. Iyengar, J. Tomasi, 
 M. Cossi, N. Rega, J. M. Millam, M. Klene, J. E. Knox, J. B. Cross, 
 V. Bakken, C. Adamo, J. Jaramillo, R. Gomperts, R. E. Stratmann, 
 O. Yazyev, A. J. Austin, R. Cammi, C. Pomelli, J. W. Ochterski, 
 R. L. Martin, K. Morokuma, V. G. Zakrzewski, G. A. Voth, 
 P. Salvador, J. J. Dannenberg, S. Dapprich, A. D. Daniels, 
 O. Farkas, J. B. Foresman, J. V. Ortiz, J. Cioslowski, 
 and D. J. Fox, Gaussian, Inc., Wallingford CT, 2013.
 
 ******************************************
 Gaussian 09:  EM64L-G09RevD.01 24-Apr-2013
                14-Sep-2018 
 ******************************************
 %chk=Acrolina_Din_24.chk
 %nprocshared=10
 Will use up to   10 processors via shared memory.
 -------------------------------------------
 #p td=(nstates=15)/6-31+g(d) lc-wpbe charge
 -------------------------------------------
 1/18=10,28=-2,38=1,125=101/1;
 2/12=2,17=6,18=5,40=1/2;
 3/5=1,6=6,7=11,11=9,16=1,25=1,30=1,74=-41/1,2,8,3;
 4//1;
 5/5=2,38=5/2;
 8/6=1,10=2,108=15/1;
 9/41=15,42=1,70=2/14;
 6/7=2,8=2,9=2,10=2/1;
 99/5=1,9=1/99;
 Leave Link    1 at Fri Sep 14 16:44:28 2018, MaxMem=           0 cpu:         3.0
 (Enter /usr/local/pacerepov1/gaussian/G09D01LINDA/g09/l101.exe)
 ------------------
 Acroleina in Water
 ------------------
 Symbolic Z-matrix:
 Charge =  0 Multiplicity = 1
 C                     0.48515   0.48044  -1.43014 
 H                     1.4614    0.18777  -1.05573 
 H                     0.42924   0.87885  -2.43706 
 C                    -0.60513   0.34656  -0.65843 
 H                    -1.59169   0.63289  -1.01241 
 C                    -0.50852  -0.19911   0.7128 
 H                    -1.45849  -0.27211   1.27244 
 O                     0.54488  -0.56132   1.23652 
 O                    -1.33952  -1.01685   3.23624 
 H                    -1.10895  -0.49456   2.41523 
 H                    -0.85619  -0.63212   4.02264 
 O                     1.66181   1.98929   1.62119 
 H                     1.45225   2.9105    1.29326 
 H                     0.80997   1.50345   1.81701 
 O                     2.29001  -0.68199  -3.73567 
 H                     2.1084   -0.22774  -4.60789 
 H                     2.94527  -0.14108  -3.20832 
 O                     3.981     1.95823   1.40979 
 H                     4.08353   2.13537   0.43093 
 H                     3.00903   1.9034    1.63852 
 O                     3.72151  -2.64159  -3.39259 
 H                     4.50282  -2.34208  -2.84495 
 H                     3.16013  -1.84979  -3.63335 
 O                     4.51534   0.34793  -2.77409 
 H                     5.09825   0.5008   -3.57213 
 H                     4.80697  -0.48453  -2.30291 
 O                     5.29691  -1.8582   -2.0157 
 H                     6.29594  -1.87653  -1.9748 
 H                     4.92265  -2.40924  -1.26982 
 O                     4.66788   2.21295  -1.11377 
 H                     4.38801   3.10497  -1.46881 
 H                     4.47884   1.5079   -1.79734 
 O                    -0.13025  -3.29615   3.08793 
 H                    -0.60299  -2.43192   2.91569 
 H                    -0.78113  -3.96697   3.44337 
 O                     4.6869   -2.98958  -0.04359 
 H                     3.98659  -3.60557   0.31724 
 H                     5.57481  -3.4494   -0.02895 
 O                    -3.70992  -1.51856   3.90817 
 H                    -3.66471  -2.00336   4.78166 
 H                    -2.79297  -1.45557   3.51411 
 O                     3.75787  -1.15318   4.09656 
 H                     3.9735   -0.22385   4.39639 
 H                     4.04331  -1.27117   3.14543 
 O                     4.83797  -1.95042   2.08596 
 H                     4.75729  -2.25479   1.13681 
 H                     5.06365  -2.73141   2.66833 
 O                     5.68823   0.51241   1.80532 
 H                     5.01627   1.24847   1.72315 
 H                     5.22838  -0.37066   1.71146 
 
 NAtoms=     50 NQM=       50 NQMF=       0 NMMI=      0 NMMIF=      0
                NMic=       0 NMicF=      0.
                    Isotopes and Nuclear Properties:
 (Nuclear quadrupole moments (NQMom) in fm**2, nuclear magnetic moments (NMagM)
  in nuclear magnetons)

  Atom         1           2           3           4           5           6           7           8           9          10
 IAtWgt=          12           1           1          12           1          12           1          16          16           1
 AtmWgt=  12.0000000   1.0078250   1.0078250  12.0000000   1.0078250  12.0000000   1.0078250  15.9949146  15.9949146   1.0078250
 NucSpn=           0           1           1           0           1           0           1           0           0           1
 AtZEff=   0.0000000   0.0000000   0.0000000   0.0000000   0.0000000   0.0000000   0.0000000   0.0000000   0.0000000   0.0000000
 NQMom=    0.0000000   0.0000000   0.0000000   0.0000000   0.0000000   0.0000000   0.0000000   0.0000000   0.0000000   0.0000000
 NMagM=    0.0000000   2.7928460   2.7928460   0.0000000   2.7928460   0.0000000   2.7928460   0.0000000   0.0000000   2.7928460
 AtZNuc=   6.0000000   1.0000000   1.0000000   6.0000000   1.0000000   6.0000000   1.0000000   8.0000000   8.0000000   1.0000000

  Atom        11          12          13          14          15          16          17          18          19          20
 IAtWgt=           1          16           1           1          16           1           1          16           1           1
 AtmWgt=   1.0078250  15.9949146   1.0078250   1.0078250  15.9949146   1.0078250   1.0078250  15.9949146   1.0078250   1.0078250
 NucSpn=           1           0           1           1           0           1           1           0           1           1
 AtZEff=   0.0000000   0.0000000   0.0000000   0.0000000   0.0000000   0.0000000   0.0000000   0.0000000   0.0000000   0.0000000
 NQMom=    0.0000000   0.0000000   0.0000000   0.0000000   0.0000000   0.0000000   0.0000000   0.0000000   0.0000000   0.0000000
 NMagM=    2.7928460   0.0000000   2.7928460   2.7928460   0.0000000   2.7928460   2.7928460   0.0000000   2.7928460   2.7928460
 AtZNuc=   1.0000000   8.0000000   1.0000000   1.0000000   8.0000000   1.0000000   1.0000000   8.0000000   1.0000000   1.0000000

  Atom        21          22          23          24          25          26          27          28          29          30
 IAtWgt=          16           1           1          16           1           1          16           1           1          16
 AtmWgt=  15.9949146   1.0078250   1.0078250  15.9949146   1.0078250   1.0078250  15.9949146   1.0078250   1.0078250  15.9949146
 NucSpn=           0           1           1           0           1           1           0           1           1           0
 AtZEff=   0.0000000   0.0000000   0.0000000   0.0000000   0.0000000   0.0000000   0.0000000   0.0000000   0.0000000   0.0000000
 NQMom=    0.0000000   0.0000000   0.0000000   0.0000000   0.0000000   0.0000000   0.0000000   0.0000000   0.0000000   0.0000000
 NMagM=    0.0000000   2.7928460   2.7928460   0.0000000   2.7928460   2.7928460   0.0000000   2.7928460   2.7928460   0.0000000
 AtZNuc=   8.0000000   1.0000000   1.0000000   8.0000000   1.0000000   1.0000000   8.0000000   1.0000000   1.0000000   8.0000000

  Atom        31          32          33          34          35          36          37          38          39          40
 IAtWgt=           1           1          16           1           1          16           1           1          16           1
 AtmWgt=   1.0078250   1.0078250  15.9949146   1.0078250   1.0078250  15.9949146   1.0078250   1.0078250  15.9949146   1.0078250
 NucSpn=           1           1           0           1           1           0           1           1           0           1
 AtZEff=   0.0000000   0.0000000   0.0000000   0.0000000   0.0000000   0.0000000   0.0000000   0.0000000   0.0000000   0.0000000
 NQMom=    0.0000000   0.0000000   0.0000000   0.0000000   0.0000000   0.0000000   0.0000000   0.0000000   0.0000000   0.0000000
 NMagM=    2.7928460   2.7928460   0.0000000   2.7928460   2.7928460   0.0000000   2.7928460   2.7928460   0.0000000   2.7928460
 AtZNuc=   1.0000000   1.0000000   8.0000000   1.0000000   1.0000000   8.0000000   1.0000000   1.0000000   8.0000000   1.0000000

  Atom        41          42          43          44          45          46          47          48          49          50
 IAtWgt=           1          16           1           1          16           1           1          16           1           1
 AtmWgt=   1.0078250  15.9949146   1.0078250   1.0078250  15.9949146   1.0078250   1.0078250  15.9949146   1.0078250   1.0078250
 NucSpn=           1           0           1           1           0           1           1           0           1           1
 AtZEff=   0.0000000   0.0000000   0.0000000   0.0000000   0.0000000   0.0000000   0.0000000   0.0000000   0.0000000   0.0000000
 NQMom=    0.0000000   0.0000000   0.0000000   0.0000000   0.0000000   0.0000000   0.0000000   0.0000000   0.0000000   0.0000000
 NMagM=    2.7928460   0.0000000   2.7928460   2.7928460   0.0000000   2.7928460   2.7928460   0.0000000   2.7928460   2.7928460
 AtZNuc=   1.0000000   8.0000000   1.0000000   1.0000000   8.0000000   1.0000000   1.0000000   8.0000000   1.0000000   1.0000000
 Background charge distribution read from input stream:
 Point Charges:
 XYZ=    1.4184   -1.7944    4.4329 Q=   -0.8200 A=    0.0000 R=    0.0000 C=    0.0000
 XYZ=    2.3738   -1.5604    4.2525 Q=    0.4100 A=    0.0000 R=    0.0000 C=    0.0000
 XYZ=    1.0701   -2.3682    3.6916 Q=    0.4100 A=    0.0000 R=    0.0000 C=    0.0000
 XYZ=    3.4763   -4.9728   -3.0496 Q=   -0.8200 A=    0.0000 R=    0.0000 C=    0.0000
 XYZ=    3.6677   -3.9973   -3.1579 Q=    0.4100 A=    0.0000 R=    0.0000 C=    0.0000
 XYZ=    2.7728   -5.2492   -3.7044 Q=    0.4100 A=    0.0000 R=    0.0000 C=    0.0000
 XYZ=    1.4842    0.1521   -6.2260 Q=   -0.8200 A=    0.0000 R=    0.0000 C=    0.0000
 XYZ=    1.7838    0.7834   -6.9413 Q=    0.4100 A=    0.0000 R=    0.0000 C=    0.0000
 XYZ=    0.5952    0.4449   -5.8739 Q=    0.4100 A=    0.0000 R=    0.0000 C=    0.0000
 XYZ=    1.3202    4.2156    1.1364 Q=   -0.8200 A=    0.0000 R=    0.0000 C=    0.0000
 XYZ=    1.8521    4.3689    0.3036 Q=    0.4100 A=    0.0000 R=    0.0000 C=    0.0000
 XYZ=    0.3459    4.3118    0.9321 Q=    0.4100 A=    0.0000 R=    0.0000 C=    0.0000
 XYZ=   -0.8791    4.8225    0.4924 Q=   -0.8200 A=    0.0000 R=    0.0000 C=    0.0000
 XYZ=   -0.5498    5.6282    0.0000 Q=    0.4100 A=    0.0000 R=    0.0000 C=    0.0000
 XYZ=   -1.7967    4.5878    0.1715 Q=    0.4100 A=    0.0000 R=    0.0000 C=    0.0000
 XYZ=   -0.1775   -0.5721    5.4623 Q=   -0.8200 A=    0.0000 R=    0.0000 C=    0.0000
 XYZ=    0.3106    0.1413    5.9651 Q=    0.4100 A=    0.0000 R=    0.0000 C=    0.0000
 XYZ=    0.4827   -1.1967    5.0450 Q=    0.4100 A=    0.0000 R=    0.0000 C=    0.0000
 XYZ=    6.5539    1.3825   -0.3561 Q=   -0.8200 A=    0.0000 R=    0.0000 C=    0.0000
 XYZ=    5.7401    1.7334   -0.8193 Q=    0.4100 A=    0.0000 R=    0.0000 C=    0.0000
 XYZ=    6.3155    1.1100    0.5760 Q=    0.4100 A=    0.0000 R=    0.0000 C=    0.0000
 XYZ=    3.1340   -4.5722    0.8199 Q=   -0.8200 A=    0.0000 R=    0.0000 C=    0.0000
 XYZ=    2.2500   -4.6107    1.2859 Q=    0.4100 A=    0.0000 R=    0.0000 C=    0.0000
 XYZ=    3.1606   -5.2638    0.0980 Q=    0.4100 A=    0.0000 R=    0.0000 C=    0.0000
 XYZ=   -3.2420    4.8782   -0.2954 Q=   -0.8200 A=    0.0000 R=    0.0000 C=    0.0000
 XYZ=   -4.0254    4.3076   -0.5421 Q=    0.4100 A=    0.0000 R=    0.0000 C=    0.0000
 XYZ=   -3.4054    5.3013    0.5958 Q=    0.4100 A=    0.0000 R=    0.0000 C=    0.0000
 XYZ=    1.0947   -5.0434    1.9028 Q=   -0.8200 A=    0.0000 R=    0.0000 C=    0.0000
 XYZ=    0.4385   -4.3340    2.1601 Q=    0.4100 A=    0.0000 R=    0.0000 C=    0.0000
 XYZ=    1.1996   -5.6902    2.6583 Q=    0.4100 A=    0.0000 R=    0.0000 C=    0.0000
 XYZ=    3.0403   -3.7738   -5.5915 Q=   -0.8200 A=    0.0000 R=    0.0000 C=    0.0000
 XYZ=    3.3928   -3.2669   -4.8048 Q=    0.4100 A=    0.0000 R=    0.0000 C=    0.0000
 XYZ=    3.8036   -4.0751   -6.1630 Q=    0.4100 A=    0.0000 R=    0.0000 C=    0.0000
 XYZ=    5.1108    3.5953    2.6095 Q=   -0.8200 A=    0.0000 R=    0.0000 C=    0.0000
 XYZ=    4.5092    4.1826    3.1510 Q=    0.4100 A=    0.0000 R=    0.0000 C=    0.0000
 XYZ=    4.5662    2.8937    2.1499 Q=    0.4100 A=    0.0000 R=    0.0000 C=    0.0000
 XYZ=    7.3199   -0.9712   -0.8774 Q=   -0.8200 A=    0.0000 R=    0.0000 C=    0.0000
 XYZ=    6.9538   -0.0479   -0.7610 Q=    0.4100 A=    0.0000 R=    0.0000 C=    0.0000
 XYZ=    7.8544   -1.2219   -0.0702 Q=    0.4100 A=    0.0000 R=    0.0000 C=    0.0000
 XYZ=   -3.4587    1.9207   -5.2905 Q=   -0.8200 A=    0.0000 R=    0.0000 C=    0.0000
 XYZ=   -2.8577    2.6020   -4.8725 Q=    0.4100 A=    0.0000 R=    0.0000 C=    0.0000
 XYZ=   -3.7064    2.2160   -6.2132 Q=    0.4100 A=    0.0000 R=    0.0000 C=    0.0000
 XYZ=    2.9319   -6.0913   -0.9167 Q=   -0.8200 A=    0.0000 R=    0.0000 C=    0.0000
 XYZ=    3.6770   -6.7478   -0.7989 Q=    0.4100 A=    0.0000 R=    0.0000 C=    0.0000
 XYZ=    3.0194   -5.6439   -1.8067 Q=    0.4100 A=    0.0000 R=    0.0000 C=    0.0000
 XYZ=   -5.5675    3.9408   -1.3579 Q=   -0.8200 A=    0.0000 R=    0.0000 C=    0.0000
 XYZ=   -5.7839    4.7596   -0.8260 Q=    0.4100 A=    0.0000 R=    0.0000 C=    0.0000
 XYZ=   -6.1378    3.1807   -1.0463 Q=    0.4100 A=    0.0000 R=    0.0000 C=    0.0000
 XYZ=   -5.4406    0.0507    4.7855 Q=   -0.8200 A=    0.0000 R=    0.0000 C=    0.0000
 XYZ=   -4.4536    0.2070    4.7472 Q=    0.4100 A=    0.0000 R=    0.0000 C=    0.0000
 XYZ=   -5.6890   -0.6716    4.1401 Q=    0.4100 A=    0.0000 R=    0.0000 C=    0.0000
 XYZ=    6.0840    0.4759   -4.4776 Q=   -0.8200 A=    0.0000 R=    0.0000 C=    0.0000
 XYZ=    6.6968    1.2569   -4.3566 Q=    0.4100 A=    0.0000 R=    0.0000 C=    0.0000
 XYZ=    6.6141   -0.3715   -4.4475 Q=    0.4100 A=    0.0000 R=    0.0000 C=    0.0000
 XYZ=   -5.8686   -1.6753    3.1875 Q=   -0.8200 A=    0.0000 R=    0.0000 C=    0.0000
 XYZ=   -4.9102   -1.6822    3.4730 Q=    0.4100 A=    0.0000 R=    0.0000 C=    0.0000
 XYZ=   -6.2964   -2.5445    3.4353 Q=    0.4100 A=    0.0000 R=    0.0000 C=    0.0000
 XYZ=    4.2211   -2.8512    5.5148 Q=   -0.8200 A=    0.0000 R=    0.0000 C=    0.0000
 XYZ=    4.1047   -2.1559    4.8056 Q=    0.4100 A=    0.0000 R=    0.0000 C=    0.0000
 XYZ=    3.3651   -2.9577    6.0208 Q=    0.4100 A=    0.0000 R=    0.0000 C=    0.0000
 XYZ=   -3.6604    5.4890    1.9338 Q=   -0.8200 A=    0.0000 R=    0.0000 C=    0.0000
 XYZ=   -4.6071    5.2127    2.0995 Q=    0.4100 A=    0.0000 R=    0.0000 C=    0.0000
 XYZ=   -3.0452    4.9048    2.4633 Q=    0.4100 A=    0.0000 R=    0.0000 C=    0.0000
 XYZ=    1.9972    4.4782   -5.0584 Q=   -0.8200 A=    0.0000 R=    0.0000 C=    0.0000
 XYZ=    2.9736    4.5379   -4.8506 Q=    0.4100 A=    0.0000 R=    0.0000 C=    0.0000
 XYZ=    1.5005    4.1813   -4.2428 Q=    0.4100 A=    0.0000 R=    0.0000 C=    0.0000
 XYZ=   -1.4891   -2.0642    6.8716 Q=   -0.8200 A=    0.0000 R=    0.0000 C=    0.0000
 XYZ=   -0.9724   -1.4890    6.2374 Q=    0.4100 A=    0.0000 R=    0.0000 C=    0.0000
 XYZ=   -2.2025   -2.5548    6.3711 Q=    0.4100 A=    0.0000 R=    0.0000 C=    0.0000
 XYZ=    1.8396    6.0715    2.3870 Q=   -0.8200 A=    0.0000 R=    0.0000 C=    0.0000
 XYZ=    1.4116    5.2733    1.9631 Q=    0.4100 A=    0.0000 R=    0.0000 C=    0.0000
 XYZ=    2.3724    6.5676    1.7014 Q=    0.4100 A=    0.0000 R=    0.0000 C=    0.0000
 XYZ=   -5.6221    1.7095   -4.7125 Q=   -0.8200 A=    0.0000 R=    0.0000 C=    0.0000
 XYZ=   -5.7849    0.8284   -4.2684 Q=    0.4100 A=    0.0000 R=    0.0000 C=    0.0000
 XYZ=   -4.6380    1.8797   -4.7644 Q=    0.4100 A=    0.0000 R=    0.0000 C=    0.0000
 XYZ=   -5.0292    4.3178   -3.6443 Q=   -0.8200 A=    0.0000 R=    0.0000 C=    0.0000
 XYZ=   -5.0201    4.1592   -2.6570 Q=    0.4100 A=    0.0000 R=    0.0000 C=    0.0000
 XYZ=   -5.8618    3.9271   -4.0369 Q=    0.4100 A=    0.0000 R=    0.0000 C=    0.0000
 XYZ=   -2.6584    4.1209   -4.2512 Q=   -0.8200 A=    0.0000 R=    0.0000 C=    0.0000
 XYZ=   -2.1640    4.9543   -4.0041 Q=    0.4100 A=    0.0000 R=    0.0000 C=    0.0000
 XYZ=   -3.6343    4.2472   -4.0734 Q=    0.4100 A=    0.0000 R=    0.0000 C=    0.0000
 XYZ=    3.1697   -1.4127   -6.9234 Q=   -0.8200 A=    0.0000 R=    0.0000 C=    0.0000
 XYZ=    2.9630   -2.2490   -6.4156 Q=    0.4100 A=    0.0000 R=    0.0000 C=    0.0000
 XYZ=    2.4777   -0.7199   -6.7202 Q=    0.4100 A=    0.0000 R=    0.0000 C=    0.0000
 XYZ=    4.3830    0.7281    5.1719 Q=   -0.8200 A=    0.0000 R=    0.0000 C=    0.0000
 XYZ=    4.8144    0.1806    5.8890 Q=    0.4100 A=    0.0000 R=    0.0000 C=    0.0000
 XYZ=    3.6709    1.3032    5.5746 Q=    0.4100 A=    0.0000 R=    0.0000 C=    0.0000
 XYZ=    5.8026   -5.2669   -2.0420 Q=   -0.8200 A=    0.0000 R=    0.0000 C=    0.0000
 XYZ=    5.0051   -5.2628   -2.6454 Q=    0.4100 A=    0.0000 R=    0.0000 C=    0.0000
 XYZ=    6.6314   -5.3983   -2.5860 Q=    0.4100 A=    0.0000 R=    0.0000 C=    0.0000
 XYZ=    3.8808   -5.9480    2.7307 Q=   -0.8200 A=    0.0000 R=    0.0000 C=    0.0000
 XYZ=    3.7193   -5.2915    1.9939 Q=    0.4100 A=    0.0000 R=    0.0000 C=    0.0000
 XYZ=    3.0086   -6.1995    3.1502 Q=    0.4100 A=    0.0000 R=    0.0000 C=    0.0000
 XYZ=    1.8844   -2.7655    6.5502 Q=   -0.8200 A=    0.0000 R=    0.0000 C=    0.0000
 XYZ=    1.5766   -2.3471    5.6956 Q=    0.4100 A=    0.0000 R=    0.0000 C=    0.0000
 XYZ=    2.0605   -2.0505    7.2269 Q=    0.4100 A=    0.0000 R=    0.0000 C=    0.0000
 XYZ=   -7.5166   -1.6309    1.2450 Q=   -0.8200 A=    0.0000 R=    0.0000 C=    0.0000
 XYZ=   -6.7023   -1.4416    1.7937 Q=    0.4100 A=    0.0000 R=    0.0000 C=    0.0000
 XYZ=   -7.5415   -2.6025    1.0097 Q=    0.4100 A=    0.0000 R=    0.0000 C=    0.0000
 XYZ=    4.3891    4.3661   -1.9606 Q=   -0.8200 A=    0.0000 R=    0.0000 C=    0.0000
 XYZ=    5.2906    4.6297   -1.6171 Q=    0.4100 A=    0.0000 R=    0.0000 C=    0.0000
 XYZ=    4.4082    4.3386   -2.9600 Q=    0.4100 A=    0.0000 R=    0.0000 C=    0.0000
 XYZ=    7.8958    0.6186    2.6613 Q=   -0.8200 A=    0.0000 R=    0.0000 C=    0.0000
 XYZ=    7.7875    0.8033    3.6381 Q=    0.4100 A=    0.0000 R=    0.0000 C=    0.0000
 XYZ=    6.9952    0.5709    2.2292 Q=    0.4100 A=    0.0000 R=    0.0000 C=    0.0000
 XYZ=    6.7534   -4.1109   -0.1804 Q=   -0.8200 A=    0.0000 R=    0.0000 C=    0.0000
 XYZ=    7.7392   -4.2787   -0.1779 Q=    0.4100 A=    0.0000 R=    0.0000 C=    0.0000
 XYZ=    6.3399   -4.5660   -0.9690 Q=    0.4100 A=    0.0000 R=    0.0000 C=    0.0000
 XYZ=    0.7614   -6.4984   -0.1182 Q=   -0.8200 A=    0.0000 R=    0.0000 C=    0.0000
 XYZ=    0.7975   -5.9759    0.7337 Q=    0.4100 A=    0.0000 R=    0.0000 C=    0.0000
 XYZ=    1.6077   -6.3573   -0.6319 Q=    0.4100 A=    0.0000 R=    0.0000 C=    0.0000
 XYZ=    1.1681    0.7622    6.8557 Q=   -0.8200 A=    0.0000 R=    0.0000 C=    0.0000
 XYZ=    1.7976    0.0955    7.2547 Q=    0.4100 A=    0.0000 R=    0.0000 C=    0.0000
 XYZ=    1.6903    1.4717    6.3824 Q=    0.4100 A=    0.0000 R=    0.0000 C=    0.0000
 XYZ=    2.5957    5.3338   -0.7048 Q=   -0.8200 A=    0.0000 R=    0.0000 C=    0.0000
 XYZ=    2.8826    6.1588   -0.2178 Q=    0.4100 A=    0.0000 R=    0.0000 C=    0.0000
 XYZ=    3.3817    4.9355   -1.1776 Q=    0.4100 A=    0.0000 R=    0.0000 C=    0.0000
 XYZ=   -2.7112    6.7292   -1.9700 Q=   -0.8200 A=    0.0000 R=    0.0000 C=    0.0000
 XYZ=   -2.8840    5.9774   -1.3336 Q=    0.4100 A=    0.0000 R=    0.0000 C=    0.0000
 XYZ=   -2.8742    7.6010   -1.5081 Q=    0.4100 A=    0.0000 R=    0.0000 C=    0.0000
 XYZ=    5.4481   -0.5277   -6.8033 Q=   -0.8200 A=    0.0000 R=    0.0000 C=    0.0000
 XYZ=    5.8724   -0.1493   -5.9806 Q=    0.4100 A=    0.0000 R=    0.0000 C=    0.0000
 XYZ=    4.5574   -0.9177   -6.5697 Q=    0.4100 A=    0.0000 R=    0.0000 C=    0.0000
 XYZ=   -7.6069    2.3405   -0.7084 Q=   -0.8200 A=    0.0000 R=    0.0000 C=    0.0000
 XYZ=   -7.6516    1.3442   -0.6345 Q=    0.4100 A=    0.0000 R=    0.0000 C=    0.0000
 XYZ=   -8.2120    2.6476   -1.4430 Q=    0.4100 A=    0.0000 R=    0.0000 C=    0.0000
 XYZ=    6.2643    1.9117    4.2111 Q=   -0.8200 A=    0.0000 R=    0.0000 C=    0.0000
 XYZ=    5.7961    2.5809    3.6341 Q=    0.4100 A=    0.0000 R=    0.0000 C=    0.0000
 XYZ=    5.5912    1.2960    4.6209 Q=    0.4100 A=    0.0000 R=    0.0000 C=    0.0000
 XYZ=    5.2827   -3.9025    3.6435 Q=   -0.8200 A=    0.0000 R=    0.0000 C=    0.0000
 XYZ=    5.0588   -3.5524    4.5531 Q=    0.4100 A=    0.0000 R=    0.0000 C=    0.0000
 XYZ=    4.8756   -4.8082    3.5255 Q=    0.4100 A=    0.0000 R=    0.0000 C=    0.0000
 XYZ=   -8.0901   -0.0158   -0.4588 Q=   -0.8200 A=    0.0000 R=    0.0000 C=    0.0000
 XYZ=   -7.8899   -0.4504   -1.3369 Q=    0.4100 A=    0.0000 R=    0.0000 C=    0.0000
 XYZ=   -7.8162   -0.6256    0.2850 Q=    0.4100 A=    0.0000 R=    0.0000 C=    0.0000
 XYZ=    0.3859    6.2203   -0.9167 Q=   -0.8200 A=    0.0000 R=    0.0000 C=    0.0000
 XYZ=    1.2947    5.8032   -0.9050 Q=    0.4100 A=    0.0000 R=    0.0000 C=    0.0000
 XYZ=    0.1513    6.4820   -1.8530 Q=    0.4100 A=    0.0000 R=    0.0000 C=    0.0000
 XYZ=   -1.4829   -4.8912    4.1468 Q=   -0.8200 A=    0.0000 R=    0.0000 C=    0.0000
 XYZ=   -1.6163   -5.6784    3.5448 Q=    0.4100 A=    0.0000 R=    0.0000 C=    0.0000
 XYZ=   -0.8091   -5.1195    4.8496 Q=    0.4100 A=    0.0000 R=    0.0000 C=    0.0000
 XYZ=    2.8581    2.0518    6.0071 Q=   -0.8200 A=    0.0000 R=    0.0000 C=    0.0000
 XYZ=    3.4779    1.9229    6.7812 Q=    0.4100 A=    0.0000 R=    0.0000 C=    0.0000
 XYZ=    2.7885    3.0264    5.7945 Q=    0.4100 A=    0.0000 R=    0.0000 C=    0.0000
 XYZ=    9.1845   -0.7046   -2.5697 Q=   -0.8200 A=    0.0000 R=    0.0000 C=    0.0000
 XYZ=    8.3463   -0.7722   -2.0284 Q=    0.4100 A=    0.0000 R=    0.0000 C=    0.0000
 XYZ=    9.9697   -0.9476   -2.0000 Q=    0.4100 A=    0.0000 R=    0.0000 C=    0.0000
 XYZ=   -2.0337    4.8743   -6.4643 Q=   -0.8200 A=    0.0000 R=    0.0000 C=    0.0000
 XYZ=   -2.2352    4.1934   -5.7602 Q=    0.4100 A=    0.0000 R=    0.0000 C=    0.0000
 XYZ=   -2.8523    5.0362   -7.0155 Q=    0.4100 A=    0.0000 R=    0.0000 C=    0.0000
 XYZ=    7.1294   -4.2058    2.2574 Q=   -0.8200 A=    0.0000 R=    0.0000 C=    0.0000
 XYZ=    6.3527   -3.9320    2.8248 Q=    0.4100 A=    0.0000 R=    0.0000 C=    0.0000
 XYZ=    6.8594   -4.1937    1.2946 Q=    0.4100 A=    0.0000 R=    0.0000 C=    0.0000
 XYZ=   -3.3571   -2.8463    5.9764 Q=   -0.8200 A=    0.0000 R=    0.0000 C=    0.0000
 XYZ=   -4.0520   -2.6316    6.6627 Q=    0.4100 A=    0.0000 R=    0.0000 C=    0.0000
 XYZ=   -3.3735   -3.8270    5.7810 Q=    0.4100 A=    0.0000 R=    0.0000 C=    0.0000
 XYZ=    4.2475    4.4894   -4.3465 Q=   -0.8200 A=    0.0000 R=    0.0000 C=    0.0000
 XYZ=    4.9751    5.1622   -4.2124 Q=    0.4100 A=    0.0000 R=    0.0000 C=    0.0000
 XYZ=    4.5566    3.7876   -4.9884 Q=    0.4100 A=    0.0000 R=    0.0000 C=    0.0000
 XYZ=   -0.1708    2.2133    8.0956 Q=   -0.8200 A=    0.0000 R=    0.0000 C=    0.0000
 XYZ=    0.2105    1.5438    7.4581 Q=    0.4100 A=    0.0000 R=    0.0000 C=    0.0000
 XYZ=   -1.0675    1.9014    8.4096 Q=    0.4100 A=    0.0000 R=    0.0000 C=    0.0000
 XYZ=   -0.5164    5.5203   -4.8165 Q=   -0.8200 A=    0.0000 R=    0.0000 C=    0.0000
 XYZ=   -1.1012    5.3378   -5.6069 Q=    0.4100 A=    0.0000 R=    0.0000 C=    0.0000
 XYZ=    0.4275    5.2737   -5.0364 Q=    0.4100 A=    0.0000 R=    0.0000 C=    0.0000
 XYZ=    7.0477    2.6010   -3.7999 Q=   -0.8200 A=    0.0000 R=    0.0000 C=    0.0000
 XYZ=    7.1813    3.5572   -3.5397 Q=    0.4100 A=    0.0000 R=    0.0000 C=    0.0000
 XYZ=    7.8850    2.0856   -3.6171 Q=    0.4100 A=    0.0000 R=    0.0000 C=    0.0000
 XYZ=    4.9086   -7.1907   -0.9060 Q=   -0.8200 A=    0.0000 R=    0.0000 C=    0.0000
 XYZ=    5.5967   -7.7904   -0.4975 Q=    0.4100 A=    0.0000 R=    0.0000 C=    0.0000
 XYZ=    5.3541   -6.3748   -1.2747 Q=    0.4100 A=    0.0000 R=    0.0000 C=    0.0000
 XYZ=    5.5967    3.0971   -5.7426 Q=   -0.8200 A=    0.0000 R=    0.0000 C=    0.0000
 XYZ=    6.1842    3.6642   -6.3198 Q=    0.4100 A=    0.0000 R=    0.0000 C=    0.0000
 XYZ=    6.1445    2.6803   -5.0172 Q=    0.4100 A=    0.0000 R=    0.0000 C=    0.0000
 XYZ=   -7.8323    3.2611    1.5439 Q=   -0.8200 A=    0.0000 R=    0.0000 C=    0.0000
 XYZ=   -6.9804    3.7158    1.8039 Q=    0.4100 A=    0.0000 R=    0.0000 C=    0.0000
 XYZ=   -7.7733    2.9620    0.5915 Q=    0.4100 A=    0.0000 R=    0.0000 C=    0.0000
 XYZ=   -5.8839    4.7869    2.1781 Q=   -0.8200 A=    0.0000 R=    0.0000 C=    0.0000
 XYZ=   -6.1477    5.2813    1.3499 Q=    0.4100 A=    0.0000 R=    0.0000 C=    0.0000
 XYZ=   -6.4061    5.1370    2.9558 Q=    0.4100 A=    0.0000 R=    0.0000 C=    0.0000
 XYZ=    7.7725   -1.2232   -4.6122 Q=   -0.8200 A=    0.0000 R=    0.0000 C=    0.0000
 XYZ=    8.3811   -1.1874   -3.8195 Q=    0.4100 A=    0.0000 R=    0.0000 C=    0.0000
 XYZ=    7.8817   -2.1020   -5.0768 Q=    0.4100 A=    0.0000 R=    0.0000 C=    0.0000
 XYZ=    3.7548    5.2022    3.6392 Q=   -0.8200 A=    0.0000 R=    0.0000 C=    0.0000
 XYZ=    3.5863    4.9815    4.5999 Q=    0.4100 A=    0.0000 R=    0.0000 C=    0.0000
 XYZ=    2.9058    5.5188    3.2162 Q=    0.4100 A=    0.0000 R=    0.0000 C=    0.0000
 XYZ=    1.3262    3.8424   -7.2746 Q=   -0.8200 A=    0.0000 R=    0.0000 C=    0.0000
 XYZ=    1.6885    4.1483   -6.3941 Q=    0.4100 A=    0.0000 R=    0.0000 C=    0.0000
 XYZ=    1.7509    2.9725   -7.5255 Q=    0.4100 A=    0.0000 R=    0.0000 C=    0.0000
 XYZ=    2.3802    1.6267   -7.7130 Q=   -0.8200 A=    0.0000 R=    0.0000 C=    0.0000
 XYZ=    3.3748    1.6510   -7.8139 Q=    0.4100 A=    0.0000 R=    0.0000 C=    0.0000
 XYZ=    1.9546    1.5799   -8.6167 Q=    0.4100 A=    0.0000 R=    0.0000 C=    0.0000
 XYZ=   -7.0384    3.4559   -4.4935 Q=   -0.8200 A=    0.0000 R=    0.0000 C=    0.0000
 XYZ=   -7.4148    3.7440   -5.3740 Q=    0.4100 A=    0.0000 R=    0.0000 C=    0.0000
 XYZ=   -6.4075    2.6929   -4.6343 Q=    0.4100 A=    0.0000 R=    0.0000 C=    0.0000
 XYZ=    2.0854   -5.5689   -7.1683 Q=   -0.8200 A=    0.0000 R=    0.0000 C=    0.0000
 XYZ=    2.7375   -5.4434   -7.9160 Q=    0.4100 A=    0.0000 R=    0.0000 C=    0.0000
 XYZ=    2.2895   -4.9199   -6.4355 Q=    0.4100 A=    0.0000 R=    0.0000 C=    0.0000
 XYZ=   -4.3520   -5.9752    2.0767 Q=   -0.8200 A=    0.0000 R=    0.0000 C=    0.0000
 XYZ=   -4.4059   -6.9396    1.8177 Q=    0.4100 A=    0.0000 R=    0.0000 C=    0.0000
 XYZ=   -4.8419   -5.4214    1.4034 Q=    0.4100 A=    0.0000 R=    0.0000 C=    0.0000
 XYZ=    7.1428    4.5252    3.2416 Q=   -0.8200 A=    0.0000 R=    0.0000 C=    0.0000
 XYZ=    7.4386    3.9198    3.9806 Q=    0.4100 A=    0.0000 R=    0.0000 C=    0.0000
 XYZ=    6.3275    4.1448    2.8051 Q=    0.4100 A=    0.0000 R=    0.0000 C=    0.0000
 XYZ=   -3.3286   -5.1172    5.4823 Q=   -0.8200 A=    0.0000 R=    0.0000 C=    0.0000
 XYZ=   -2.5530   -5.1177    4.8510 Q=    0.4100 A=    0.0000 R=    0.0000 C=    0.0000
 XYZ=   -3.2468   -5.8902    6.1114 Q=    0.4100 A=    0.0000 R=    0.0000 C=    0.0000
 XYZ=    8.4197    3.7158   -0.4994 Q=   -0.8200 A=    0.0000 R=    0.0000 C=    0.0000
 XYZ=    7.9787    2.8245   -0.3945 Q=    0.4100 A=    0.0000 R=    0.0000 C=    0.0000
 XYZ=    8.7534    4.0294    0.3896 Q=    0.4100 A=    0.0000 R=    0.0000 C=    0.0000
 XYZ=    4.7824    1.7712   -7.4616 Q=   -0.8200 A=    0.0000 R=    0.0000 C=    0.0000
 XYZ=    5.1274    2.2752   -6.6698 Q=    0.4100 A=    0.0000 R=    0.0000 C=    0.0000
 XYZ=    4.9924    0.7992   -7.3553 Q=    0.4100 A=    0.0000 R=    0.0000 C=    0.0000
 XYZ=   -0.0074   -3.9222    7.3815 Q=   -0.8200 A=    0.0000 R=    0.0000 C=    0.0000
 XYZ=    0.9312   -3.6938    7.1227 Q=    0.4100 A=    0.0000 R=    0.0000 C=    0.0000
 XYZ=   -0.6120   -3.1603    7.1488 Q=    0.4100 A=    0.0000 R=    0.0000 C=    0.0000
 XYZ=    2.9026   -0.7594    7.5708 Q=   -0.8200 A=    0.0000 R=    0.0000 C=    0.0000
 XYZ=    3.0648   -0.8397    8.5543 Q=    0.4100 A=    0.0000 R=    0.0000 C=    0.0000
 XYZ=    3.7720   -0.8350    7.0824 Q=    0.4100 A=    0.0000 R=    0.0000 C=    0.0000
 XYZ=    1.6282   -6.4495    3.6913 Q=   -0.8200 A=    0.0000 R=    0.0000 C=    0.0000
 XYZ=    1.2610   -5.9987    4.5049 Q=    0.4100 A=    0.0000 R=    0.0000 C=    0.0000
 XYZ=    1.4552   -7.4328    3.7484 Q=    0.4100 A=    0.0000 R=    0.0000 C=    0.0000
 XYZ=   -0.5452    6.9663   -3.0460 Q=   -0.8200 A=    0.0000 R=    0.0000 C=    0.0000
 XYZ=   -1.4875    7.0253   -2.7164 Q=    0.4100 A=    0.0000 R=    0.0000 C=    0.0000
 XYZ=   -0.5034    6.3419   -3.8261 Q=    0.4100 A=    0.0000 R=    0.0000 C=    0.0000
 XYZ=   -2.8564   -1.1876   -9.1172 Q=   -0.8200 A=    0.0000 R=    0.0000 C=    0.0000
 XYZ=   -2.7829   -1.9983   -9.6979 Q=    0.4100 A=    0.0000 R=    0.0000 C=    0.0000
 XYZ=   -3.0292   -1.4684   -8.1731 Q=    0.4100 A=    0.0000 R=    0.0000 C=    0.0000
 XYZ=    0.5720    7.4205    3.7926 Q=   -0.8200 A=    0.0000 R=    0.0000 C=    0.0000
 XYZ=   -0.0117    7.8283    3.0904 Q=    0.4100 A=    0.0000 R=    0.0000 C=    0.0000
 XYZ=    1.1912    6.7594    3.3687 Q=    0.4100 A=    0.0000 R=    0.0000 C=    0.0000
 XYZ=   -2.6460    7.7294    1.6190 Q=   -0.8200 A=    0.0000 R=    0.0000 C=    0.0000
 XYZ=   -2.7950    8.4319    2.3150 Q=    0.4100 A=    0.0000 R=    0.0000 C=    0.0000
 XYZ=   -3.0971    6.8820    1.8990 Q=    0.4100 A=    0.0000 R=    0.0000 C=    0.0000
 XYZ=   -6.5102    5.6237   -0.0560 Q=   -0.8200 A=    0.0000 R=    0.0000 C=    0.0000
 XYZ=   -6.4814    6.6186   -0.1531 Q=    0.4100 A=    0.0000 R=    0.0000 C=    0.0000
 XYZ=   -7.3137    5.2655   -0.5317 Q=    0.4100 A=    0.0000 R=    0.0000 C=    0.0000
 XYZ=    8.8482   -1.3511    0.9616 Q=   -0.8200 A=    0.0000 R=    0.0000 C=    0.0000
 XYZ=    9.0444   -2.1595    1.5164 Q=    0.4100 A=    0.0000 R=    0.0000 C=    0.0000
 XYZ=    8.6385   -0.5784    1.5608 Q=    0.4100 A=    0.0000 R=    0.0000 C=    0.0000
 XYZ=   -6.6100   -3.9647   -4.4836 Q=   -0.8200 A=    0.0000 R=    0.0000 C=    0.0000
 XYZ=   -7.2017   -3.4436   -5.0987 Q=    0.4100 A=    0.0000 R=    0.0000 C=    0.0000
 XYZ=   -5.6552   -3.7207   -4.6535 Q=    0.4100 A=    0.0000 R=    0.0000 C=    0.0000
 XYZ=    1.0111    5.4186    6.5616 Q=   -0.8200 A=    0.0000 R=    0.0000 C=    0.0000
 XYZ=    0.4980    5.6868    5.7462 Q=    0.4100 A=    0.0000 R=    0.0000 C=    0.0000
 XYZ=    0.3732    5.1538    7.2848 Q=    0.4100 A=    0.0000 R=    0.0000 C=    0.0000
 XYZ=   -2.0551   -6.6742    2.9140 Q=   -0.8200 A=    0.0000 R=    0.0000 C=    0.0000
 XYZ=   -1.5232   -6.9684    2.1199 Q=    0.4100 A=    0.0000 R=    0.0000 C=    0.0000
 XYZ=   -2.8627   -6.1710    2.6063 Q=    0.4100 A=    0.0000 R=    0.0000 C=    0.0000
 XYZ=   -7.3297    1.5167    5.3535 Q=   -0.8200 A=    0.0000 R=    0.0000 C=    0.0000
 XYZ=   -6.4361    1.0831    5.2369 Q=    0.4100 A=    0.0000 R=    0.0000 C=    0.0000
 XYZ=   -7.9208    0.9209    5.8972 Q=    0.4100 A=    0.0000 R=    0.0000 C=    0.0000
 XYZ=    2.9870    4.3736    5.8825 Q=   -0.8200 A=    0.0000 R=    0.0000 C=    0.0000
 XYZ=    3.8260    4.5665    6.3913 Q=    0.4100 A=    0.0000 R=    0.0000 C=    0.0000
 XYZ=    2.2030    4.7465    6.3788 Q=    0.4100 A=    0.0000 R=    0.0000 C=    0.0000
 XYZ=    5.2371   -0.7608    6.8164 Q=   -0.8200 A=    0.0000 R=    0.0000 C=    0.0000
 XYZ=    5.7551   -0.6045    7.6573 Q=    0.4100 A=    0.0000 R=    0.0000 C=    0.0000
 XYZ=    5.6167   -1.5496    6.3328 Q=    0.4100 A=    0.0000 R=    0.0000 C=    0.0000
 XYZ=    4.8128   -4.0596   -7.0286 Q=   -0.8200 A=    0.0000 R=    0.0000 C=    0.0000
 XYZ=    5.5318   -4.3805   -6.4120 Q=    0.4100 A=    0.0000 R=    0.0000 C=    0.0000
 XYZ=    4.6771   -4.7290   -7.7592 Q=    0.4100 A=    0.0000 R=    0.0000 C=    0.0000
 XYZ=   -7.3967   -4.1480    1.6604 Q=   -0.8200 A=    0.0000 R=    0.0000 C=    0.0000
 XYZ=   -6.7094   -4.6792    1.1651 Q=    0.4100 A=    0.0000 R=    0.0000 C=    0.0000
 XYZ=   -7.1267   -4.0658    2.6198 Q=    0.4100 A=    0.0000 R=    0.0000 C=    0.0000
 XYZ=    8.9264    1.4775   -3.3067 Q=   -0.8200 A=    0.0000 R=    0.0000 C=    0.0000
 XYZ=    9.5994    2.0263   -2.8109 Q=    0.4100 A=    0.0000 R=    0.0000 C=    0.0000
 XYZ=    9.0250    0.5163   -3.0488 Q=    0.4100 A=    0.0000 R=    0.0000 C=    0.0000
 XYZ=   -4.1858    6.8317   -3.8761 Q=   -0.8200 A=    0.0000 R=    0.0000 C=    0.0000
 XYZ=   -3.6524    6.8396   -3.0302 Q=    0.4100 A=    0.0000 R=    0.0000 C=    0.0000
 XYZ=   -4.6762    5.9635   -3.9528 Q=    0.4100 A=    0.0000 R=    0.0000 C=    0.0000
 XYZ=   -0.8647   -7.7582    1.2132 Q=   -0.8200 A=    0.0000 R=    0.0000 C=    0.0000
 XYZ=   -0.2183   -7.3625    0.5607 Q=    0.4100 A=    0.0000 R=    0.0000 C=    0.0000
 XYZ=   -1.5171   -8.3385    0.7258 Q=    0.4100 A=    0.0000 R=    0.0000 C=    0.0000
 XYZ=    2.8230   -1.4026   -9.2668 Q=   -0.8200 A=    0.0000 R=    0.0000 C=    0.0000
 XYZ=    3.1901   -1.3852   -8.3368 Q=    0.4100 A=    0.0000 R=    0.0000 C=    0.0000
 XYZ=    3.4270   -1.9421   -9.8535 Q=    0.4100 A=    0.0000 R=    0.0000 C=    0.0000
 XYZ=   -9.0931   -0.9453    2.7869 Q=   -0.8200 A=    0.0000 R=    0.0000 C=    0.0000
 XYZ=   -8.3903   -1.3936    2.2346 Q=    0.4100 A=    0.0000 R=    0.0000 C=    0.0000
 XYZ=   -9.0730    0.0398    2.6161 Q=    0.4100 A=    0.0000 R=    0.0000 C=    0.0000
 XYZ=   -6.1401   -5.5879    0.4007 Q=   -0.8200 A=    0.0000 R=    0.0000 C=    0.0000
 XYZ=   -6.2637   -5.3776   -0.5691 Q=    0.4100 A=    0.0000 R=    0.0000 C=    0.0000
 XYZ=   -6.4603   -6.5175    0.5836 Q=    0.4100 A=    0.0000 R=    0.0000 C=    0.0000
 XYZ=   -6.5240   -1.1076    6.7518 Q=   -0.8200 A=    0.0000 R=    0.0000 C=    0.0000
 XYZ=   -6.0007   -0.6324    6.0445 Q=    0.4100 A=    0.0000 R=    0.0000 C=    0.0000
 XYZ=   -5.9034   -1.6518    7.3165 Q=    0.4100 A=    0.0000 R=    0.0000 C=    0.0000
 XYZ=   -2.6580   -1.4840    8.8975 Q=   -0.8200 A=    0.0000 R=    0.0000 C=    0.0000
 XYZ=   -2.1599   -1.7774    8.0815 Q=    0.4100 A=    0.0000 R=    0.0000 C=    0.0000
 XYZ=   -2.2535   -1.9108    9.7063 Q=    0.4100 A=    0.0000 R=    0.0000 C=    0.0000
 XYZ=    0.8045    8.3855    0.1189 Q=   -0.8200 A=    0.0000 R=    0.0000 C=    0.0000
 XYZ=    0.2112    8.5811    0.8998 Q=    0.4100 A=    0.0000 R=    0.0000 C=    0.0000
 XYZ=    0.6070    7.4688   -0.2284 Q=    0.4100 A=    0.0000 R=    0.0000 C=    0.0000
 XYZ=   -8.7461    1.5989    3.0086 Q=   -0.8200 A=    0.0000 R=    0.0000 C=    0.0000
 XYZ=   -8.4940    2.2836    2.3248 Q=    0.4100 A=    0.0000 R=    0.0000 C=    0.0000
 XYZ=   -8.1379    1.6770    3.7985 Q=    0.4100 A=    0.0000 R=    0.0000 C=    0.0000
 XYZ=   -8.5668    3.1201   -2.6657 Q=   -0.8200 A=    0.0000 R=    0.0000 C=    0.0000
 XYZ=   -7.9440    3.3226   -3.4215 Q=    0.4100 A=    0.0000 R=    0.0000 C=    0.0000
 XYZ=   -9.4790    2.9283   -3.0278 Q=    0.4100 A=    0.0000 R=    0.0000 C=    0.0000
 XYZ=   -6.3598    2.0267   -7.0688 Q=   -0.8200 A=    0.0000 R=    0.0000 C=    0.0000
 XYZ=   -6.7615    1.3584   -7.6948 Q=    0.4100 A=    0.0000 R=    0.0000 C=    0.0000
 XYZ=   -6.3248    1.6408   -6.1469 Q=    0.4100 A=    0.0000 R=    0.0000 C=    0.0000
 XYZ=    5.5940   -2.2446   -8.2955 Q=   -0.8200 A=    0.0000 R=    0.0000 C=    0.0000
 XYZ=    5.6233   -1.3774   -7.7983 Q=    0.4100 A=    0.0000 R=    0.0000 C=    0.0000
 XYZ=    5.0612   -2.9104   -7.7731 Q=    0.4100 A=    0.0000 R=    0.0000 C=    0.0000
 XYZ=  -10.3050    0.5892   -0.2715 Q=   -0.8200 A=    0.0000 R=    0.0000 C=    0.0000
 XYZ=  -10.4895    1.4380   -0.7671 Q=    0.4100 A=    0.0000 R=    0.0000 C=    0.0000
 XYZ=   -9.3301    0.3742   -0.3301 Q=    0.4100 A=    0.0000 R=    0.0000 C=    0.0000
 XYZ=    7.8054    3.2357    5.0476 Q=   -0.8200 A=    0.0000 R=    0.0000 C=    0.0000
 XYZ=    7.2006    2.5323    4.6742 Q=    0.4100 A=    0.0000 R=    0.0000 C=    0.0000
 XYZ=    8.5439    2.8010    5.5631 Q=    0.4100 A=    0.0000 R=    0.0000 C=    0.0000
 XYZ=    6.6302    5.2837   -1.3425 Q=   -0.8200 A=    0.0000 R=    0.0000 C=    0.0000
 XYZ=    7.2866    4.6985   -0.8665 Q=    0.4100 A=    0.0000 R=    0.0000 C=    0.0000
 XYZ=    6.6140    6.1858   -0.9112 Q=    0.4100 A=    0.0000 R=    0.0000 C=    0.0000
 XYZ=   -0.5950   -0.5695   -9.8093 Q=   -0.8200 A=    0.0000 R=    0.0000 C=    0.0000
 XYZ=    0.0443   -1.3283   -9.9343 Q=    0.4100 A=    0.0000 R=    0.0000 C=    0.0000
 XYZ=   -1.4081   -0.8948   -9.3266 Q=    0.4100 A=    0.0000 R=    0.0000 C=    0.0000
 XYZ=    7.6451   -5.4916   -3.5220 Q=   -0.8200 A=    0.0000 R=    0.0000 C=    0.0000
 XYZ=    7.3904   -5.1277   -4.4179 Q=    0.4100 A=    0.0000 R=    0.0000 C=    0.0000
 XYZ=    8.5769   -5.8525   -3.5615 Q=    0.4100 A=    0.0000 R=    0.0000 C=    0.0000
 XYZ=    0.2701   -5.7206    5.5485 Q=   -0.8200 A=    0.0000 R=    0.0000 C=    0.0000
 XYZ=   -0.2901   -6.5474    5.5989 Q=    0.4100 A=    0.0000 R=    0.0000 C=    0.0000
 XYZ=    0.1175   -5.1642    6.3653 Q=    0.4100 A=    0.0000 R=    0.0000 C=    0.0000
 XYZ=    9.2754   -3.1949    2.4308 Q=   -0.8200 A=    0.0000 R=    0.0000 C=    0.0000
 XYZ=    8.3354   -3.5024    2.2833 Q=    0.4100 A=    0.0000 R=    0.0000 C=    0.0000
 XYZ=    9.8968   -3.7411    1.8691 Q=    0.4100 A=    0.0000 R=    0.0000 C=    0.0000
 XYZ=    9.6811    1.8978    1.5966 Q=   -0.8200 A=    0.0000 R=    0.0000 C=    0.0000
 XYZ=    8.9514    1.3564    2.0142 Q=    0.4100 A=    0.0000 R=    0.0000 C=    0.0000
 XYZ=    9.4052    2.8583    1.5616 Q=    0.4100 A=    0.0000 R=    0.0000 C=    0.0000
 XYZ=   -4.1947    3.1413   -7.3761 Q=   -0.8200 A=    0.0000 R=    0.0000 C=    0.0000
 XYZ=   -5.1198    2.7723   -7.4661 Q=    0.4100 A=    0.0000 R=    0.0000 C=    0.0000
 XYZ=   -4.2050    4.1202   -7.5802 Q=    0.4100 A=    0.0000 R=    0.0000 C=    0.0000
 XYZ=    5.6166    6.5312    3.0708 Q=   -0.8200 A=    0.0000 R=    0.0000 C=    0.0000
 XYZ=    4.7290    6.1072    3.2508 Q=    0.4100 A=    0.0000 R=    0.0000 C=    0.0000
 XYZ=    6.2967    5.8192    2.8958 Q=    0.4100 A=    0.0000 R=    0.0000 C=    0.0000
 XYZ=    2.9914    7.2193    0.7094 Q=   -0.8200 A=    0.0000 R=    0.0000 C=    0.0000
 XYZ=    2.3389    7.9611    0.5546 Q=    0.4100 A=    0.0000 R=    0.0000 C=    0.0000
 XYZ=    3.8946    7.6042    0.8994 Q=    0.4100 A=    0.0000 R=    0.0000 C=    0.0000
 XYZ=   -0.3585    4.6476    8.1363 Q=   -0.8200 A=    0.0000 R=    0.0000 C=    0.0000
 XYZ=   -0.3411    5.0089    9.0686 Q=    0.4100 A=    0.0000 R=    0.0000 C=    0.0000
 XYZ=   -0.3689    3.6480    8.1664 Q=    0.4100 A=    0.0000 R=    0.0000 C=    0.0000
 XYZ=   -0.5111    4.5350   -8.4494 Q=   -0.8200 A=    0.0000 R=    0.0000 C=    0.0000
 XYZ=   -1.1203    4.7169   -7.6775 Q=    0.4100 A=    0.0000 R=    0.0000 C=    0.0000
 XYZ=    0.3737    4.2178   -8.1081 Q=    0.4100 A=    0.0000 R=    0.0000 C=    0.0000
 XYZ=   -6.7839   -3.8334    3.8443 Q=   -0.8200 A=    0.0000 R=    0.0000 C=    0.0000
 XYZ=   -7.2452   -3.4909    4.6628 Q=    0.4100 A=    0.0000 R=    0.0000 C=    0.0000
 XYZ=   -6.2186   -4.6222    4.0857 Q=    0.4100 A=    0.0000 R=    0.0000 C=    0.0000
 XYZ=    6.2811   -6.8481    2.5732 Q=   -0.8200 A=    0.0000 R=    0.0000 C=    0.0000
 XYZ=    6.6593   -5.9239    2.6275 Q=    0.4100 A=    0.0000 R=    0.0000 C=    0.0000
 XYZ=    5.2999   -6.8184    2.7640 Q=    0.4100 A=    0.0000 R=    0.0000 C=    0.0000
 XYZ=    6.7676   -4.9253   -5.9166 Q=   -0.8200 A=    0.0000 R=    0.0000 C=    0.0000
 XYZ=    7.4739   -4.2554   -6.1457 Q=    0.4100 A=    0.0000 R=    0.0000 C=    0.0000
 XYZ=    6.8572   -5.7218   -6.5145 Q=    0.4100 A=    0.0000 R=    0.0000 C=    0.0000
 XYZ=    1.0642    1.3991   -9.6555 Q=   -0.8200 A=    0.0000 R=    0.0000 C=    0.0000
 XYZ=    0.6535    2.2652   -9.9405 Q=    0.4100 A=    0.0000 R=    0.0000 C=    0.0000
 XYZ=    0.3695    0.6798   -9.6705 Q=    0.4100 A=    0.0000 R=    0.0000 C=    0.0000
 XYZ=   -0.5397    8.4792    2.0749 Q=   -0.8200 A=    0.0000 R=    0.0000 C=    0.0000
 XYZ=   -0.7847    9.2647    2.6433 Q=    0.4100 A=    0.0000 R=    0.0000 C=    0.0000
 XYZ=   -1.3526    8.1486    1.5953 Q=    0.4100 A=    0.0000 R=    0.0000 C=    0.0000
 XYZ=   10.7045   -1.1577   -0.6876 Q=   -0.8200 A=    0.0000 R=    0.0000 C=    0.0000
 XYZ=   11.5347   -1.2613   -0.1399 Q=    0.4100 A=    0.0000 R=    0.0000 C=    0.0000
 XYZ=    9.9023   -1.2517   -0.0980 Q=    0.4100 A=    0.0000 R=    0.0000 C=    0.0000
 XYZ=   -8.3480    5.1415   -1.3797 Q=   -0.8200 A=    0.0000 R=    0.0000 C=    0.0000
 XYZ=   -8.4197    5.9889   -1.9059 Q=    0.4100 A=    0.0000 R=    0.0000 C=    0.0000
 XYZ=   -8.4198    4.3585   -1.9976 Q=    0.4100 A=    0.0000 R=    0.0000 C=    0.0000
 XYZ=   -5.3550   -5.5402    4.2976 Q=   -0.8200 A=    0.0000 R=    0.0000 C=    0.0000
 XYZ=   -4.6399   -5.2951    4.9523 Q=    0.4100 A=    0.0000 R=    0.0000 C=    0.0000
 XYZ=   -4.9390   -5.9635    3.4927 Q=    0.4100 A=    0.0000 R=    0.0000 C=    0.0000
 XYZ=    7.5745    4.9415   -3.3588 Q=   -0.8200 A=    0.0000 R=    0.0000 C=    0.0000
 XYZ=    7.3339    5.1470   -2.4102 Q=    0.4100 A=    0.0000 R=    0.0000 C=    0.0000
 XYZ=    8.5594    5.0596   -3.4859 Q=    0.4100 A=    0.0000 R=    0.0000 C=    0.0000
 XYZ=   -2.6569    8.6899   -0.7056 Q=   -0.8200 A=    0.0000 R=    0.0000 C=    0.0000
 XYZ=   -1.7747    9.1610   -0.7036 Q=    0.4100 A=    0.0000 R=    0.0000 C=    0.0000
 XYZ=   -2.8093    8.2642    0.1863 Q=    0.4100 A=    0.0000 R=    0.0000 C=    0.0000
 XYZ=   -7.2961   -5.5526   -1.8873 Q=   -0.8200 A=    0.0000 R=    0.0000 C=    0.0000
 XYZ=   -8.1905   -5.8278   -1.5344 Q=    0.4100 A=    0.0000 R=    0.0000 C=    0.0000
 XYZ=   -7.4188   -4.8880   -2.6244 Q=    0.4100 A=    0.0000 R=    0.0000 C=    0.0000
 XYZ=    9.1076   -4.8007   -0.7670 Q=   -0.8200 A=    0.0000 R=    0.0000 C=    0.0000
 XYZ=    9.4163   -4.5390   -1.6815 Q=    0.4100 A=    0.0000 R=    0.0000 C=    0.0000
 XYZ=    8.8081   -5.7548   -0.7767 Q=    0.4100 A=    0.0000 R=    0.0000 C=    0.0000
 XYZ=    0.0366   -5.5735   -8.3623 Q=   -0.8200 A=    0.0000 R=    0.0000 C=    0.0000
 XYZ=   -0.4833   -6.3762   -8.0699 Q=    0.4100 A=    0.0000 R=    0.0000 C=    0.0000
 XYZ=    0.9435   -5.5924   -7.9412 Q=    0.4100 A=    0.0000 R=    0.0000 C=    0.0000
 XYZ=    1.2757   -7.6527   -6.5115 Q=   -0.8200 A=    0.0000 R=    0.0000 C=    0.0000
 XYZ=    1.7099   -6.7597   -6.6299 Q=    0.4100 A=    0.0000 R=    0.0000 C=    0.0000
 XYZ=    1.9782   -8.3639   -6.4849 Q=    0.4100 A=    0.0000 R=    0.0000 C=    0.0000
 XYZ=    4.5849    2.0426    7.6999 Q=   -0.8200 A=    0.0000 R=    0.0000 C=    0.0000
 XYZ=    5.4547    2.5189    7.5705 Q=    0.4100 A=    0.0000 R=    0.0000 C=    0.0000
 XYZ=    4.0640    2.4914    8.4260 Q=    0.4100 A=    0.0000 R=    0.0000 C=    0.0000
 XYZ=   -2.2863    7.7149    6.2471 Q=   -0.8200 A=    0.0000 R=    0.0000 C=    0.0000
 XYZ=   -3.1398    8.1434    5.9503 Q=    0.4100 A=    0.0000 R=    0.0000 C=    0.0000
 XYZ=   -2.3194    6.7350    6.0507 Q=    0.4100 A=    0.0000 R=    0.0000 C=    0.0000
 XYZ=   -4.7698   -2.3934    7.9448 Q=   -0.8200 A=    0.0000 R=    0.0000 C=    0.0000
 XYZ=   -4.2164   -1.6694    8.3567 Q=    0.4100 A=    0.0000 R=    0.0000 C=    0.0000
 XYZ=   -4.8125   -3.1752    8.5670 Q=    0.4100 A=    0.0000 R=    0.0000 C=    0.0000
 XYZ=   -9.4027    4.8091    2.4345 Q=   -0.8200 A=    0.0000 R=    0.0000 C=    0.0000
 XYZ=   -8.7824    4.1382    2.0280 Q=    0.4100 A=    0.0000 R=    0.0000 C=    0.0000
 XYZ=  -10.2111    4.3417    2.7923 Q=    0.4100 A=    0.0000 R=    0.0000 C=    0.0000
 XYZ=   -3.6854    0.5683  -10.1283 Q=   -0.8200 A=    0.0000 R=    0.0000 C=    0.0000
 XYZ=   -3.3340   -0.1999   -9.5931 Q=    0.4100 A=    0.0000 R=    0.0000 C=    0.0000
 XYZ=   -4.6667    0.4482  -10.2791 Q=    0.4100 A=    0.0000 R=    0.0000 C=    0.0000
 XYZ=   10.1767    3.0057   -1.8806 Q=   -0.8200 A=    0.0000 R=    0.0000 C=    0.0000
 XYZ=    9.4050    3.3507   -1.3462 Q=    0.4100 A=    0.0000 R=    0.0000 C=    0.0000
 XYZ=   10.5019    2.1484   -1.4813 Q=    0.4100 A=    0.0000 R=    0.0000 C=    0.0000
 XYZ=   -0.6272   -4.0363   -9.7818 Q=   -0.8200 A=    0.0000 R=    0.0000 C=    0.0000
 XYZ=    0.0665   -3.3286   -9.9159 Q=    0.4100 A=    0.0000 R=    0.0000 C=    0.0000
 XYZ=   -0.3428   -4.6460   -9.0419 Q=    0.4100 A=    0.0000 R=    0.0000 C=    0.0000
 XYZ=    0.7398   -2.3028  -10.3942 Q=   -0.8200 A=    0.0000 R=    0.0000 C=    0.0000
 XYZ=    1.5896   -2.0326   -9.9415 Q=    0.4100 A=    0.0000 R=    0.0000 C=    0.0000
 XYZ=    0.7783   -2.0417  -11.3587 Q=    0.4100 A=    0.0000 R=    0.0000 C=    0.0000
 XYZ=   -3.6351    2.8607   -9.7815 Q=   -0.8200 A=    0.0000 R=    0.0000 C=    0.0000
 XYZ=   -3.7038    2.9099   -8.7851 Q=    0.4100 A=    0.0000 R=    0.0000 C=    0.0000
 XYZ=   -3.6087    1.9027  -10.0669 Q=    0.4100 A=    0.0000 R=    0.0000 C=    0.0000
 XYZ=    1.0962    2.7127   10.0688 Q=   -0.8200 A=    0.0000 R=    0.0000 C=    0.0000
 XYZ=    2.0628    2.7925    9.8251 Q=    0.4100 A=    0.0000 R=    0.0000 C=    0.0000
 XYZ=    0.5791    2.3854    9.2779 Q=    0.4100 A=    0.0000 R=    0.0000 C=    0.0000
 XYZ=    8.3712   -3.3001   -6.2780 Q=   -0.8200 A=    0.0000 R=    0.0000 C=    0.0000
 XYZ=    9.3192   -3.0246   -6.1185 Q=    0.4100 A=    0.0000 R=    0.0000 C=    0.0000
 XYZ=    8.2285   -3.4525   -7.2560 Q=    0.4100 A=    0.0000 R=    0.0000 C=    0.0000
 XYZ=    8.8777    4.2679    1.7025 Q=   -0.8200 A=    0.0000 R=    0.0000 C=    0.0000
 XYZ=    8.2340    4.6078    2.3883 Q=    0.4100 A=    0.0000 R=    0.0000 C=    0.0000
 XYZ=    9.8002    4.2562    2.0883 Q=    0.4100 A=    0.0000 R=    0.0000 C=    0.0000
 XYZ=   -2.9422   -6.3612   -7.4669 Q=   -0.8200 A=    0.0000 R=    0.0000 C=    0.0000
 XYZ=   -2.0568   -6.8137   -7.3601 Q=    0.4100 A=    0.0000 R=    0.0000 C=    0.0000
 XYZ=   -3.4950   -6.5128   -6.6475 Q=    0.4100 A=    0.0000 R=    0.0000 C=    0.0000
 XYZ=    6.1563    5.8702   -4.9285 Q=   -0.8200 A=    0.0000 R=    0.0000 C=    0.0000
 XYZ=    6.8842    5.5848   -4.3050 Q=    0.4100 A=    0.0000 R=    0.0000 C=    0.0000
 XYZ=    6.3670    5.5541   -5.8535 Q=    0.4100 A=    0.0000 R=    0.0000 C=    0.0000
 XYZ=   -6.9687    5.4412    4.1347 Q=   -0.8200 A=    0.0000 R=    0.0000 C=    0.0000
 XYZ=   -7.7037    6.0721    3.8862 Q=    0.4100 A=    0.0000 R=    0.0000 C=    0.0000
 XYZ=   -7.3392    4.7040    4.6998 Q=    0.4100 A=    0.0000 R=    0.0000 C=    0.0000
 XYZ=   -2.8358    4.8632    8.4887 Q=   -0.8200 A=    0.0000 R=    0.0000 C=    0.0000
 XYZ=   -1.9816    5.2317    8.1218 Q=    0.4100 A=    0.0000 R=    0.0000 C=    0.0000
 XYZ=   -2.7034    3.9053    8.7432 Q=    0.4100 A=    0.0000 R=    0.0000 C=    0.0000
 XYZ=    6.9018   -8.0107    0.4852 Q=   -0.8200 A=    0.0000 R=    0.0000 C=    0.0000
 XYZ=    6.6998   -7.5076    1.3255 Q=    0.4100 A=    0.0000 R=    0.0000 C=    0.0000
 XYZ=    7.3919   -8.8527    0.7105 Q=    0.4100 A=    0.0000 R=    0.0000 C=    0.0000
 XYZ=   -7.8004   -2.9214    5.6764 Q=   -0.8200 A=    0.0000 R=    0.0000 C=    0.0000
 XYZ=   -8.6916   -2.5264    5.4534 Q=    0.4100 A=    0.0000 R=    0.0000 C=    0.0000
 XYZ=   -7.2118   -2.2149    6.0695 Q=    0.4100 A=    0.0000 R=    0.0000 C=    0.0000
 XYZ=   -7.6489    3.8151    6.1978 Q=   -0.8200 A=    0.0000 R=    0.0000 C=    0.0000
 XYZ=   -7.2899    3.7726    7.1301 Q=    0.4100 A=    0.0000 R=    0.0000 C=    0.0000
 XYZ=   -7.4915    2.9402    5.7397 Q=    0.4100 A=    0.0000 R=    0.0000 C=    0.0000
 XYZ=   -0.3183    8.6883    5.4725 Q=   -0.8200 A=    0.0000 R=    0.0000 C=    0.0000
 XYZ=    0.2522    8.0646    4.9382 Q=    0.4100 A=    0.0000 R=    0.0000 C=    0.0000
 XYZ=   -1.1128    8.1939    5.8251 Q=    0.4100 A=    0.0000 R=    0.0000 C=    0.0000
 XYZ=   -2.5042    2.5443    9.3806 Q=   -0.8200 A=    0.0000 R=    0.0000 C=    0.0000
 XYZ=   -3.0628    1.7149    9.3796 Q=    0.4100 A=    0.0000 R=    0.0000 C=    0.0000
 XYZ=   -2.0663    2.6502   10.2734 Q=    0.4100 A=    0.0000 R=    0.0000 C=    0.0000
 XYZ=   -3.9551    0.7280    9.5428 Q=   -0.8200 A=    0.0000 R=    0.0000 C=    0.0000
 XYZ=   -3.2153    0.0626    9.4430 Q=    0.4100 A=    0.0000 R=    0.0000 C=    0.0000
 XYZ=   -4.8094    0.2488    9.7445 Q=    0.4100 A=    0.0000 R=    0.0000 C=    0.0000
 XYZ=   10.8360    1.1635   -0.6225 Q=   -0.8200 A=    0.0000 R=    0.0000 C=    0.0000
 XYZ=   10.7746    0.1655   -0.6053 Q=    0.4100 A=    0.0000 R=    0.0000 C=    0.0000
 XYZ=   10.5006    1.5331    0.2441 Q=    0.4100 A=    0.0000 R=    0.0000 C=    0.0000
 XYZ=   -0.5129   -4.3736    9.5487 Q=   -0.8200 A=    0.0000 R=    0.0000 C=    0.0000
 XYZ=   -0.2538   -4.2132    8.5963 Q=    0.4100 A=    0.0000 R=    0.0000 C=    0.0000
 XYZ=    0.2854   -4.6869   10.0631 Q=    0.4100 A=    0.0000 R=    0.0000 C=    0.0000
 XYZ=    5.5439    7.8835    1.2945 Q=   -0.8200 A=    0.0000 R=    0.0000 C=    0.0000
 XYZ=    5.9398    8.7758    1.5114 Q=    0.4100 A=    0.0000 R=    0.0000 C=    0.0000
 XYZ=    5.5022    7.3269    2.1243 Q=    0.4100 A=    0.0000 R=    0.0000 C=    0.0000
 XYZ=   -0.9110    9.4246   -3.1877 Q=   -0.8200 A=    0.0000 R=    0.0000 C=    0.0000
 XYZ=   -1.7540    9.5822   -3.7020 Q=    0.4100 A=    0.0000 R=    0.0000 C=    0.0000
 XYZ=   -0.6351    8.4683   -3.2851 Q=    0.4100 A=    0.0000 R=    0.0000 C=    0.0000
 XYZ=    5.0314    4.7913    6.8984 Q=   -0.8200 A=    0.0000 R=    0.0000 C=    0.0000
 XYZ=    5.5059    5.6651    7.0050 Q=    0.4100 A=    0.0000 R=    0.0000 C=    0.0000
 XYZ=    5.7011    4.0492    6.8739 Q=    0.4100 A=    0.0000 R=    0.0000 C=    0.0000
 XYZ=   -6.4523   -6.4798   -4.8865 Q=   -0.8200 A=    0.0000 R=    0.0000 C=    0.0000
 XYZ=   -6.5582   -5.4963   -4.7396 Q=    0.4100 A=    0.0000 R=    0.0000 C=    0.0000
 XYZ=   -6.4556   -6.9507   -4.0044 Q=    0.4100 A=    0.0000 R=    0.0000 C=    0.0000
 XYZ=   -4.3623   -7.1987   -5.7744 Q=   -0.8200 A=    0.0000 R=    0.0000 C=    0.0000
 XYZ=   -4.7493   -7.7617   -6.5047 Q=    0.4100 A=    0.0000 R=    0.0000 C=    0.0000
 XYZ=   -5.0720   -6.5994   -5.4040 Q=    0.4100 A=    0.0000 R=    0.0000 C=    0.0000
 XYZ=   -5.8129    6.5588    5.9565 Q=   -0.8200 A=    0.0000 R=    0.0000 C=    0.0000
 XYZ=   -6.6231    6.9812    6.3631 Q=    0.4100 A=    0.0000 R=    0.0000 C=    0.0000
 XYZ=   -6.0811    6.0316    5.1501 Q=    0.4100 A=    0.0000 R=    0.0000 C=    0.0000
 XYZ=  -10.1694    4.5436    0.0239 Q=   -0.8200 A=    0.0000 R=    0.0000 C=    0.0000
 XYZ=   -9.4468    4.7887   -0.6225 Q=    0.4100 A=    0.0000 R=    0.0000 C=    0.0000
 XYZ=  -10.0772    5.0963    0.8522 Q=    0.4100 A=    0.0000 R=    0.0000 C=    0.0000
 XYZ=   10.5286   -4.6343    1.0384 Q=   -0.8200 A=    0.0000 R=    0.0000 C=    0.0000
 XYZ=    9.9576   -4.5696    0.2200 Q=    0.4100 A=    0.0000 R=    0.0000 C=    0.0000
 XYZ=   10.7839   -5.5889    1.1920 Q=    0.4100 A=    0.0000 R=    0.0000 C=    0.0000
 XYZ=    6.6528    3.1506    7.1888 Q=   -0.8200 A=    0.0000 R=    0.0000 C=    0.0000
 XYZ=    7.2923    3.0024    6.4343 Q=    0.4100 A=    0.0000 R=    0.0000 C=    0.0000
 XYZ=    7.1605    3.4141    8.0090 Q=    0.4100 A=    0.0000 R=    0.0000 C=    0.0000
 XYZ=   -2.1239   -8.8634    3.9420 Q=   -0.8200 A=    0.0000 R=    0.0000 C=    0.0000
 XYZ=   -1.8860   -9.6610    3.3877 Q=    0.4100 A=    0.0000 R=    0.0000 C=    0.0000
 XYZ=   -2.0401   -8.0353    3.3877 Q=    0.4100 A=    0.0000 R=    0.0000 C=    0.0000
 XYZ=   -0.9128   -7.6113   -7.2242 Q=   -0.8200 A=    0.0000 R=    0.0000 C=    0.0000
 XYZ=   -1.5274   -8.1763   -6.6737 Q=    0.4100 A=    0.0000 R=    0.0000 C=    0.0000
 XYZ=    0.0185   -7.6870   -6.8677 Q=    0.4100 A=    0.0000 R=    0.0000 C=    0.0000
 XYZ=   -1.8486    0.6124  -11.3849 Q=   -0.8200 A=    0.0000 R=    0.0000 C=    0.0000
 XYZ=   -1.2317    0.1621  -10.7394 Q=    0.4100 A=    0.0000 R=    0.0000 C=    0.0000
 XYZ=   -2.7572    0.6949  -10.9753 Q=    0.4100 A=    0.0000 R=    0.0000 C=    0.0000
 XYZ=    7.7003   -3.6357   -8.4536 Q=   -0.8200 A=    0.0000 R=    0.0000 C=    0.0000
 XYZ=    6.9126   -3.0231   -8.3894 Q=    0.4100 A=    0.0000 R=    0.0000 C=    0.0000
 XYZ=    7.7173   -4.0632   -9.3574 Q=    0.4100 A=    0.0000 R=    0.0000 C=    0.0000
 XYZ=    0.2440    3.5210  -10.5477 Q=   -0.8200 A=    0.0000 R=    0.0000 C=    0.0000
 XYZ=   -0.2823    3.8730   -9.7737 Q=    0.4100 A=    0.0000 R=    0.0000 C=    0.0000
 XYZ=    0.9438    4.1873  -10.8055 Q=    0.4100 A=    0.0000 R=    0.0000 C=    0.0000
 XYZ=  -11.0797   -0.4347    1.6867 Q=   -0.8200 A=    0.0000 R=    0.0000 C=    0.0000
 XYZ=  -10.7531   -0.0216    0.8366 Q=    0.4100 A=    0.0000 R=    0.0000 C=    0.0000
 XYZ=  -10.2990   -0.7574    2.2219 Q=    0.4100 A=    0.0000 R=    0.0000 C=    0.0000
 XYZ=    5.9066    0.4061    9.0311 Q=   -0.8200 A=    0.0000 R=    0.0000 C=    0.0000
 XYZ=    5.3258    1.0347    8.5138 Q=    0.4100 A=    0.0000 R=    0.0000 C=    0.0000
 XYZ=    6.7260    0.8882    9.3411 Q=    0.4100 A=    0.0000 R=    0.0000 C=    0.0000
 XYZ=   -9.2895   -5.5721    2.3015 Q=   -0.8200 A=    0.0000 R=    0.0000 C=    0.0000
 XYZ=  -10.0454   -5.7275    1.6654 Q=    0.4100 A=    0.0000 R=    0.0000 C=    0.0000
 XYZ=   -8.5869   -5.0179    1.8552 Q=    0.4100 A=    0.0000 R=    0.0000 C=    0.0000
 XYZ=   -2.8329   -3.1938  -10.3902 Q=   -0.8200 A=    0.0000 R=    0.0000 C=    0.0000
 XYZ=   -2.0844   -3.6955   -9.9565 Q=    0.4100 A=    0.0000 R=    0.0000 C=    0.0000
 XYZ=   -2.6786   -3.1529  -11.3775 Q=    0.4100 A=    0.0000 R=    0.0000 C=    0.0000
 XYZ=    2.3972   -0.1698  -11.1826 Q=   -0.8200 A=    0.0000 R=    0.0000 C=    0.0000
 XYZ=    1.9672    0.6768  -10.8690 Q=    0.4100 A=    0.0000 R=    0.0000 C=    0.0000
 XYZ=    2.6904   -0.7074  -10.3920 Q=    0.4100 A=    0.0000 R=    0.0000 C=    0.0000
 XYZ=    4.3257   -2.8192  -10.2505 Q=   -0.8200 A=    0.0000 R=    0.0000 C=    0.0000
 XYZ=    4.8107   -2.9049  -11.1208 Q=    0.4100 A=    0.0000 R=    0.0000 C=    0.0000
 XYZ=    4.9516   -2.4695   -9.5533 Q=    0.4100 A=    0.0000 R=    0.0000 C=    0.0000
 XYZ=    8.6818   -7.1420   -0.7195 Q=   -0.8200 A=    0.0000 R=    0.0000 C=    0.0000
 XYZ=    7.9115   -7.5596   -0.2375 Q=    0.4100 A=    0.0000 R=    0.0000 C=    0.0000
 XYZ=    9.5272   -7.6132   -0.4681 Q=    0.4100 A=    0.0000 R=    0.0000 C=    0.0000
 XYZ=   -6.7836   -7.6121   -2.6356 Q=   -0.8200 A=    0.0000 R=    0.0000 C=    0.0000
 XYZ=   -7.0111   -6.6934   -2.3129 Q=    0.4100 A=    0.0000 R=    0.0000 C=    0.0000
 XYZ=   -7.6139   -8.0677   -2.9567 Q=    0.4100 A=    0.0000 R=    0.0000 C=    0.0000
 XYZ=   -7.6560    3.9137   -6.8699 Q=   -0.8200 A=    0.0000 R=    0.0000 C=    0.0000
 XYZ=   -7.2643    4.5883   -7.4957 Q=    0.4100 A=    0.0000 R=    0.0000 C=    0.0000
 XYZ=   -7.2417    3.0199   -7.0416 Q=    0.4100 A=    0.0000 R=    0.0000 C=    0.0000
 XYZ=   -1.2154   -7.5017    5.6827 Q=   -0.8200 A=    0.0000 R=    0.0000 C=    0.0000
 XYZ=   -1.9183   -7.0018    6.1886 Q=    0.4100 A=    0.0000 R=    0.0000 C=    0.0000
 XYZ=   -1.6517   -8.1435    5.0519 Q=    0.4100 A=    0.0000 R=    0.0000 C=    0.0000
 XYZ=   -4.9576    9.0768   -3.7803 Q=   -0.8200 A=    0.0000 R=    0.0000 C=    0.0000
 XYZ=   -5.0705    9.2385   -2.7999 Q=    0.4100 A=    0.0000 R=    0.0000 C=    0.0000
 XYZ=   -4.7005    8.1226   -3.9333 Q=    0.4100 A=    0.0000 R=    0.0000 C=    0.0000
 XYZ=   -5.0230    9.2282   -1.4002 Q=   -0.8200 A=    0.0000 R=    0.0000 C=    0.0000
 XYZ=   -5.4350   10.0368   -0.9801 Q=    0.4100 A=    0.0000 R=    0.0000 C=    0.0000
 XYZ=   -4.1035    9.0927   -1.0310 Q=    0.4100 A=    0.0000 R=    0.0000 C=    0.0000
 XYZ=    3.8712   -5.2326   -8.8891 Q=   -0.8200 A=    0.0000 R=    0.0000 C=    0.0000
 XYZ=    4.4155   -5.9324   -9.3518 Q=    0.4100 A=    0.0000 R=    0.0000 C=    0.0000
 XYZ=    3.6947   -4.4768   -9.5196 Q=    0.4100 A=    0.0000 R=    0.0000 C=    0.0000
 XYZ=   -7.5227   -3.1711   -6.4973 Q=   -0.8200 A=    0.0000 R=    0.0000 C=    0.0000
 XYZ=   -7.2016   -3.8003   -7.2052 Q=    0.4100 A=    0.0000 R=    0.0000 C=    0.0000
 XYZ=   -7.9957   -2.4011   -6.9254 Q=    0.4100 A=    0.0000 R=    0.0000 C=    0.0000
 XYZ=   -6.7604    8.0130   -0.4132 Q=   -0.8200 A=    0.0000 R=    0.0000 C=    0.0000
 XYZ=   -6.0743    8.5532   -0.9005 Q=    0.4100 A=    0.0000 R=    0.0000 C=    0.0000
 XYZ=   -7.3579    8.6237    0.1066 Q=    0.4100 A=    0.0000 R=    0.0000 C=    0.0000
 XYZ=   -8.6704   -0.0200    6.6267 Q=   -0.8200 A=    0.0000 R=    0.0000 C=    0.0000
 XYZ=   -9.2324   -0.6861    6.1362 Q=    0.4100 A=    0.0000 R=    0.0000 C=    0.0000
 XYZ=   -7.7807   -0.4252    6.8371 Q=    0.4100 A=    0.0000 R=    0.0000 C=    0.0000
 XYZ=   -9.7402   -1.8046    4.9907 Q=   -0.8200 A=    0.0000 R=    0.0000 C=    0.0000
 XYZ=   -9.6669   -1.4643    4.0533 Q=    0.4100 A=    0.0000 R=    0.0000 C=    0.0000
 XYZ=  -10.5942   -2.3145    5.0943 Q=    0.4100 A=    0.0000 R=    0.0000 C=    0.0000
 XYZ=   -2.4138   -8.8769   -5.9182 Q=   -0.8200 A=    0.0000 R=    0.0000 C=    0.0000
 XYZ=   -3.0155   -8.3077   -5.3579 Q=    0.4100 A=    0.0000 R=    0.0000 C=    0.0000
 XYZ=   -2.9633   -9.4104   -6.5613 Q=    0.4100 A=    0.0000 R=    0.0000 C=    0.0000
 XYZ=    7.0010    4.5728   -6.9176 Q=   -0.8200 A=    0.0000 R=    0.0000 C=    0.0000
 XYZ=    7.8703    5.0622   -6.8486 Q=    0.4100 A=    0.0000 R=    0.0000 C=    0.0000
 XYZ=    6.5742    4.7744   -7.7993 Q=    0.4100 A=    0.0000 R=    0.0000 C=    0.0000
 XYZ=   -5.1164    5.7285    8.1599 Q=   -0.8200 A=    0.0000 R=    0.0000 C=    0.0000
 XYZ=   -5.4623    6.0305    7.2715 Q=    0.4100 A=    0.0000 R=    0.0000 C=    0.0000
 XYZ=   -4.1683    5.4257    8.0630 Q=    0.4100 A=    0.0000 R=    0.0000 C=    0.0000
 XYZ=    6.4410    7.8433   -0.8632 Q=   -0.8200 A=    0.0000 R=    0.0000 C=    0.0000
 XYZ=    5.7045    7.9780   -1.5262 Q=    0.4100 A=    0.0000 R=    0.0000 C=    0.0000
 XYZ=    6.0534    7.7739    0.0560 Q=    0.4100 A=    0.0000 R=    0.0000 C=    0.0000
 XYZ=   -4.0105    5.4981   -7.9461 Q=   -0.8200 A=    0.0000 R=    0.0000 C=    0.0000
 XYZ=   -3.4565    6.2035   -8.3883 Q=    0.4100 A=    0.0000 R=    0.0000 C=    0.0000
 XYZ=   -4.9419    5.5298   -8.3087 Q=    0.4100 A=    0.0000 R=    0.0000 C=    0.0000
 XYZ=   -0.6171   10.0141   -0.8400 Q=   -0.8200 A=    0.0000 R=    0.0000 C=    0.0000
 XYZ=   -0.6968    9.8432   -1.8220 Q=    0.4100 A=    0.0000 R=    0.0000 C=    0.0000
 XYZ=    0.0874    9.4185   -0.4541 Q=    0.4100 A=    0.0000 R=    0.0000 C=    0.0000
 XYZ=   -4.5906   -8.2990    1.5618 Q=   -0.8200 A=    0.0000 R=    0.0000 C=    0.0000
 XYZ=   -5.4264   -8.1684    1.0284 Q=    0.4100 A=    0.0000 R=    0.0000 C=    0.0000
 XYZ=   -3.9497   -8.8654    1.0437 Q=    0.4100 A=    0.0000 R=    0.0000 C=    0.0000
 XYZ=   11.1496   -2.3937    4.0319 Q=   -0.8200 A=    0.0000 R=    0.0000 C=    0.0000
 XYZ=   10.3467   -2.4927    3.4440 Q=    0.4100 A=    0.0000 R=    0.0000 C=    0.0000
 XYZ=   10.8563   -2.2973    4.9831 Q=    0.4100 A=    0.0000 R=    0.0000 C=    0.0000
 XYZ=  -11.2889    1.2200    3.4851 Q=   -0.8200 A=    0.0000 R=    0.0000 C=    0.0000
 XYZ=  -10.3089    1.2966    3.6687 Q=    0.4100 A=    0.0000 R=    0.0000 C=    0.0000
 XYZ=  -11.4390    0.5648    2.7447 Q=    0.4100 A=    0.0000 R=    0.0000 C=    0.0000
 XYZ=   11.4930    1.8640    2.9107 Q=   -0.8200 A=    0.0000 R=    0.0000 C=    0.0000
 XYZ=   11.9639    0.9843    2.9778 Q=    0.4100 A=    0.0000 R=    0.0000 C=    0.0000
 XYZ=   10.7051    1.7746    2.3013 Q=    0.4100 A=    0.0000 R=    0.0000 C=    0.0000
 XYZ=   -6.7312   -6.8615    5.5836 Q=   -0.8200 A=    0.0000 R=    0.0000 C=    0.0000
 XYZ=   -6.1355   -6.3411    4.9717 Q=    0.4100 A=    0.0000 R=    0.0000 C=    0.0000
 XYZ=   -7.4540   -6.2648    5.9321 Q=    0.4100 A=    0.0000 R=    0.0000 C=    0.0000
 XYZ=    8.4415    5.8837    5.4284 Q=   -0.8200 A=    0.0000 R=    0.0000 C=    0.0000
 XYZ=    8.0156    5.0671    5.0386 Q=    0.4100 A=    0.0000 R=    0.0000 C=    0.0000
 XYZ=    8.2661    5.9136    6.4125 Q=    0.4100 A=    0.0000 R=    0.0000 C=    0.0000
 XYZ=  -11.1172    2.5884   -1.1516 Q=   -0.8200 A=    0.0000 R=    0.0000 C=    0.0000
 XYZ=  -11.9522    2.3191   -0.6716 Q=    0.4100 A=    0.0000 R=    0.0000 C=    0.0000
 XYZ=  -10.8134    3.4805   -0.8169 Q=    0.4100 A=    0.0000 R=    0.0000 C=    0.0000
 XYZ=    3.2962    3.3580    9.3189 Q=   -0.8200 A=    0.0000 R=    0.0000 C=    0.0000
 XYZ=    4.0105    3.3156   10.0175 Q=    0.4100 A=    0.0000 R=    0.0000 C=    0.0000
 XYZ=    3.0638    4.3136    9.1375 Q=    0.4100 A=    0.0000 R=    0.0000 C=    0.0000
 XYZ=   -4.6627    8.5557    5.0387 Q=   -0.8200 A=    0.0000 R=    0.0000 C=    0.0000
 XYZ=   -5.0405    7.7133    5.4230 Q=    0.4100 A=    0.0000 R=    0.0000 C=    0.0000
 XYZ=   -5.3138    9.3033    5.1703 Q=    0.4100 A=    0.0000 R=    0.0000 C=    0.0000
 XYZ=    3.7834   -0.8418    9.8036 Q=   -0.8200 A=    0.0000 R=    0.0000 C=    0.0000
 XYZ=    4.4837   -0.1511    9.6231 Q=    0.4100 A=    0.0000 R=    0.0000 C=    0.0000
 XYZ=    4.2231   -1.7150   10.0142 Q=    0.4100 A=    0.0000 R=    0.0000 C=    0.0000
 XYZ=   -3.1533   -6.7451    7.0732 Q=   -0.8200 A=    0.0000 R=    0.0000 C=    0.0000
 XYZ=   -2.7063   -6.5433    7.9447 Q=    0.4100 A=    0.0000 R=    0.0000 C=    0.0000
 XYZ=   -4.0216   -7.2109    7.2439 Q=    0.4100 A=    0.0000 R=    0.0000 C=    0.0000
 XYZ=   -1.3197    6.1645  -10.1467 Q=   -0.8200 A=    0.0000 R=    0.0000 C=    0.0000
 XYZ=   -1.7088    5.5940  -10.8701 Q=    0.4100 A=    0.0000 R=    0.0000 C=    0.0000
 XYZ=   -0.9563    5.5804   -9.4208 Q=    0.4100 A=    0.0000 R=    0.0000 C=    0.0000
 XYZ=    9.5970   -6.9770   -2.8622 Q=   -0.8200 A=    0.0000 R=    0.0000 C=    0.0000
 XYZ=    9.1291   -7.2816   -2.0325 Q=    0.4100 A=    0.0000 R=    0.0000 C=    0.0000
 XYZ=   10.3255   -7.6229   -3.0902 Q=    0.4100 A=    0.0000 R=    0.0000 C=    0.0000
 XYZ=   -3.3625    9.3692    3.1035 Q=   -0.8200 A=    0.0000 R=    0.0000 C=    0.0000
 XYZ=   -3.8325    9.0071    3.9084 Q=    0.4100 A=    0.0000 R=    0.0000 C=    0.0000
 XYZ=   -3.9239   10.0815    2.6820 Q=    0.4100 A=    0.0000 R=    0.0000 C=    0.0000
 XYZ=   -6.7653   -7.8003    0.6562 Q=   -0.8200 A=    0.0000 R=    0.0000 C=    0.0000
 XYZ=   -7.6641   -7.8382    1.0931 Q=    0.4100 A=    0.0000 R=    0.0000 C=    0.0000
 XYZ=   -6.7876   -8.3207   -0.1975 Q=    0.4100 A=    0.0000 R=    0.0000 C=    0.0000
 XYZ=   -2.7461   -9.2798    0.4777 Q=   -0.8200 A=    0.0000 R=    0.0000 C=    0.0000
 XYZ=   -2.1953   -9.8386    1.0977 Q=    0.4100 A=    0.0000 R=    0.0000 C=    0.0000
 XYZ=   -3.0094   -9.8256   -0.3178 Q=    0.4100 A=    0.0000 R=    0.0000 C=    0.0000
 XYZ=   -4.7453   -6.4838   -8.9946 Q=   -0.8200 A=    0.0000 R=    0.0000 C=    0.0000
 XYZ=   -4.8093   -5.6232   -9.4998 Q=    0.4100 A=    0.0000 R=    0.0000 C=    0.0000
 XYZ=   -3.9695   -6.4435   -8.3647 Q=    0.4100 A=    0.0000 R=    0.0000 C=    0.0000
 XYZ=   -1.7172   -2.6254   10.7228 Q=   -0.8200 A=    0.0000 R=    0.0000 C=    0.0000
 XYZ=   -1.1157   -3.2204   10.1897 Q=    0.4100 A=    0.0000 R=    0.0000 C=    0.0000
 XYZ=   -2.4565   -3.1689   11.1204 Q=    0.4100 A=    0.0000 R=    0.0000 C=    0.0000
 XYZ=   -1.1303   10.0570    3.7216 Q=   -0.8200 A=    0.0000 R=    0.0000 C=    0.0000
 XYZ=   -2.0813    9.8041    3.5435 Q=    0.4100 A=    0.0000 R=    0.0000 C=    0.0000
 XYZ=   -0.7764    9.5099    4.4803 Q=    0.4100 A=    0.0000 R=    0.0000 C=    0.0000
 XYZ=    6.9420    7.7518    4.8693 Q=   -0.8200 A=    0.0000 R=    0.0000 C=    0.0000
 XYZ=    7.7334    7.1713    5.0611 Q=    0.4100 A=    0.0000 R=    0.0000 C=    0.0000
 XYZ=    6.4106    7.3543    4.1212 Q=    0.4100 A=    0.0000 R=    0.0000 C=    0.0000
 XYZ=  -10.9369    2.8751   -3.5185 Q=   -0.8200 A=    0.0000 R=    0.0000 C=    0.0000
 XYZ=  -11.0642    2.7289   -2.5374 Q=    0.4100 A=    0.0000 R=    0.0000 C=    0.0000
 XYZ=  -11.5637    2.2850   -4.0275 Q=    0.4100 A=    0.0000 R=    0.0000 C=    0.0000
 XYZ=    3.3872    5.8630    9.1069 Q=   -0.8200 A=    0.0000 R=    0.0000 C=    0.0000
 XYZ=    4.2835    6.1329    9.4588 Q=    0.4100 A=    0.0000 R=    0.0000 C=    0.0000
 XYZ=    3.3484    6.0396    8.1234 Q=    0.4100 A=    0.0000 R=    0.0000 C=    0.0000
 XYZ=   -4.8451   -4.4359  -10.0706 Q=   -0.8200 A=    0.0000 R=    0.0000 C=    0.0000
 XYZ=   -5.1816   -4.7669  -10.9522 Q=    0.4100 A=    0.0000 R=    0.0000 C=    0.0000
 XYZ=   -4.0810   -3.8082  -10.2199 Q=    0.4100 A=    0.0000 R=    0.0000 C=    0.0000
 XYZ=    7.9122   -8.7124    3.3581 Q=   -0.8200 A=    0.0000 R=    0.0000 C=    0.0000
 XYZ=    7.2326   -8.0553    3.0318 Q=    0.4100 A=    0.0000 R=    0.0000 C=    0.0000
 XYZ=    7.6304   -9.0685    4.2491 Q=    0.4100 A=    0.0000 R=    0.0000 C=    0.0000
 XYZ=    0.0274    4.9118   10.4449 Q=   -0.8200 A=    0.0000 R=    0.0000 C=    0.0000
 XYZ=   -0.7399    4.8909   11.0859 Q=    0.4100 A=    0.0000 R=    0.0000 C=    0.0000
 XYZ=    0.4042    3.9908   10.3459 Q=    0.4100 A=    0.0000 R=    0.0000 C=    0.0000
 XYZ=    9.6257    2.1274    5.8532 Q=   -0.8200 A=    0.0000 R=    0.0000 C=    0.0000
 XYZ=   10.5180    2.5704    5.7653 Q=    0.4100 A=    0.0000 R=    0.0000 C=    0.0000
 XYZ=    9.7542    1.1543    6.0446 Q=    0.4100 A=    0.0000 R=    0.0000 C=    0.0000
 XYZ=   -8.9601    6.6857    3.8449 Q=   -0.8200 A=    0.0000 R=    0.0000 C=    0.0000
 XYZ=   -9.4074    6.5645    4.7311 Q=    0.4100 A=    0.0000 R=    0.0000 C=    0.0000
 XYZ=   -9.2204    5.9370    3.2350 Q=    0.4100 A=    0.0000 R=    0.0000 C=    0.0000
 XYZ=   10.1025    5.2774   -3.1832 Q=   -0.8200 A=    0.0000 R=    0.0000 C=    0.0000
 XYZ=   10.2582    6.0371   -2.5517 Q=    0.4100 A=    0.0000 R=    0.0000 C=    0.0000
 XYZ=   10.5040    4.4428   -2.8059 Q=    0.4100 A=    0.0000 R=    0.0000 C=    0.0000
 XYZ=   -0.6787   -5.8730  -11.2787 Q=   -0.8200 A=    0.0000 R=    0.0000 C=    0.0000
 XYZ=   -1.6731   -5.9430  -11.3576 Q=    0.4100 A=    0.0000 R=    0.0000 C=    0.0000
 XYZ=   -0.4447   -5.1000  -10.6890 Q=    0.4100 A=    0.0000 R=    0.0000 C=    0.0000
 XYZ=   -6.7781   -4.5692   -8.1049 Q=   -0.8200 A=    0.0000 R=    0.0000 C=    0.0000
 XYZ=   -6.0503   -4.5535   -8.7905 Q=    0.4100 A=    0.0000 R=    0.0000 C=    0.0000
 XYZ=   -6.8140   -5.4726   -7.6776 Q=    0.4100 A=    0.0000 R=    0.0000 C=    0.0000
 XYZ=   -2.4039   -5.9580    9.1485 Q=   -0.8200 A=    0.0000 R=    0.0000 C=    0.0000
 XYZ=   -1.6254   -5.3803    9.3942 Q=    0.4100 A=    0.0000 R=    0.0000 C=    0.0000
 XYZ=   -3.2478   -5.4254    9.2136 Q=    0.4100 A=    0.0000 R=    0.0000 C=    0.0000
 XYZ=   -8.2617   -5.1866    6.1909 Q=   -0.8200 A=    0.0000 R=    0.0000 C=    0.0000
 XYZ=   -9.0211   -5.3590    5.5636 Q=    0.4100 A=    0.0000 R=    0.0000 C=    0.0000
 XYZ=   -8.0778   -4.2044    6.2297 Q=    0.4100 A=    0.0000 R=    0.0000 C=    0.0000
 XYZ=   -2.4591    4.2644  -11.3381 Q=   -0.8200 A=    0.0000 R=    0.0000 C=    0.0000
 XYZ=   -3.0630    3.8673  -10.6470 Q=    0.4100 A=    0.0000 R=    0.0000 C=    0.0000
 XYZ=   -2.0993    3.5379  -11.9235 Q=    0.4100 A=    0.0000 R=    0.0000 C=    0.0000
 XYZ=   -3.7163    5.3061   10.6510 Q=   -0.8200 A=    0.0000 R=    0.0000 C=    0.0000
 XYZ=   -3.9564    6.2764   10.6796 Q=    0.4100 A=    0.0000 R=    0.0000 C=    0.0000
 XYZ=   -3.3046    5.0905    9.7655 Q=    0.4100 A=    0.0000 R=    0.0000 C=    0.0000
 XYZ=   -8.0223    0.8119   -8.3730 Q=   -0.8200 A=    0.0000 R=    0.0000 C=    0.0000
 XYZ=   -8.8418    1.3549   -8.1895 Q=    0.4100 A=    0.0000 R=    0.0000 C=    0.0000
 XYZ=   -8.2450   -0.1607   -8.3062 Q=    0.4100 A=    0.0000 R=    0.0000 C=    0.0000
 XYZ=   -3.1203    9.7814   -5.1202 Q=   -0.8200 A=    0.0000 R=    0.0000 C=    0.0000
 XYZ=   -3.8252    9.3759   -4.5381 Q=    0.4100 A=    0.0000 R=    0.0000 C=    0.0000
 XYZ=   -2.6783    9.0632   -5.6577 Q=    0.4100 A=    0.0000 R=    0.0000 C=    0.0000
 XYZ=   -9.4006   -6.3400   -1.3011 Q=   -0.8200 A=    0.0000 R=    0.0000 C=    0.0000
 XYZ=   -9.8019   -6.4825   -0.3963 Q=    0.4100 A=    0.0000 R=    0.0000 C=    0.0000
 XYZ=   -9.9799   -6.7693   -1.9940 Q=    0.4100 A=    0.0000 R=    0.0000 C=    0.0000
 XYZ=   -5.7576    3.8555  -10.3244 Q=   -0.8200 A=    0.0000 R=    0.0000 C=    0.0000
 XYZ=   -6.4434    3.1991  -10.6388 Q=    0.4100 A=    0.0000 R=    0.0000 C=    0.0000
 XYZ=   -4.9066    3.3737  -10.1150 Q=    0.4100 A=    0.0000 R=    0.0000 C=    0.0000
 XYZ=  -12.9184   -0.5568   -1.6582 Q=   -0.8200 A=    0.0000 R=    0.0000 C=    0.0000
 XYZ=  -13.3968    0.2968   -1.4515 Q=    0.4100 A=    0.0000 R=    0.0000 C=    0.0000
 XYZ=  -11.9401   -0.4404   -1.4864 Q=    0.4100 A=    0.0000 R=    0.0000 C=    0.0000
 XYZ=   -4.2850   -9.5794    3.5014 Q=   -0.8200 A=    0.0000 R=    0.0000 C=    0.0000
 XYZ=   -3.3606   -9.3859    3.8299 Q=    0.4100 A=    0.0000 R=    0.0000 C=    0.0000
 XYZ=   -4.5220   -8.9351    2.7743 Q=    0.4100 A=    0.0000 R=    0.0000 C=    0.0000
 XYZ=   -6.0425   -9.5355   -1.3612 Q=   -0.8200 A=    0.0000 R=    0.0000 C=    0.0000
 XYZ=   -6.8075  -10.1725   -1.4568 Q=    0.4100 A=    0.0000 R=    0.0000 C=    0.0000
 XYZ=   -6.1765   -8.7589   -1.9768 Q=    0.4100 A=    0.0000 R=    0.0000 C=    0.0000
 XYZ=   -7.1690   -7.0846   -6.9966 Q=   -0.8200 A=    0.0000 R=    0.0000 C=    0.0000
 XYZ=   -6.4613   -7.7437   -7.2510 Q=    0.4100 A=    0.0000 R=    0.0000 C=    0.0000
 XYZ=   -7.0097   -6.7689   -6.0612 Q=    0.4100 A=    0.0000 R=    0.0000 C=    0.0000
 XYZ=   -4.6263   -4.5181    9.3635 Q=   -0.8200 A=    0.0000 R=    0.0000 C=    0.0000
 XYZ=   -5.2756   -5.2651    9.2208 Q=    0.4100 A=    0.0000 R=    0.0000 C=    0.0000
 XYZ=   -4.4897   -4.3782   10.3442 Q=    0.4100 A=    0.0000 R=    0.0000 C=    0.0000
 XYZ=  -11.2906    3.6266    3.3071 Q=   -0.8200 A=    0.0000 R=    0.0000 C=    0.0000
 XYZ=  -12.1670    3.8501    2.8804 Q=    0.4100 A=    0.0000 R=    0.0000 C=    0.0000
 XYZ=  -11.2035    2.6338    3.3891 Q=    0.4100 A=    0.0000 R=    0.0000 C=    0.0000
 XYZ=    2.4550   -0.1492   11.8036 Q=   -0.8200 A=    0.0000 R=    0.0000 C=    0.0000
 XYZ=    2.7333   -0.5725   10.9414 Q=    0.4100 A=    0.0000 R=    0.0000 C=    0.0000
 XYZ=    3.1199    0.5522   12.0604 Q=    0.4100 A=    0.0000 R=    0.0000 C=    0.0000
 XYZ=   -9.8199    4.6117   -7.0077 Q=   -0.8200 A=    0.0000 R=    0.0000 C=    0.0000
 XYZ=   -9.7896    5.4714   -7.5177 Q=    0.4100 A=    0.0000 R=    0.0000 C=    0.0000
 XYZ=   -8.9013    4.2192   -6.9614 Q=    0.4100 A=    0.0000 R=    0.0000 C=    0.0000
 XYZ=   -9.2653    5.5302    6.2456 Q=   -0.8200 A=    0.0000 R=    0.0000 C=    0.0000
 XYZ=   -8.6996    4.7073    6.1926 Q=    0.4100 A=    0.0000 R=    0.0000 C=    0.0000
 XYZ=   -8.7355    6.2730    6.6549 Q=    0.4100 A=    0.0000 R=    0.0000 C=    0.0000
 XYZ=   -0.0760   -8.9874   -9.2723 Q=   -0.8200 A=    0.0000 R=    0.0000 C=    0.0000
 XYZ=    0.1743   -8.5608  -10.1415 Q=    0.4100 A=    0.0000 R=    0.0000 C=    0.0000
 XYZ=   -0.3815   -8.2831   -8.6313 Q=    0.4100 A=    0.0000 R=    0.0000 C=    0.0000
 XYZ=    1.0826   -1.5776  -12.5324 Q=   -0.8200 A=    0.0000 R=    0.0000 C=    0.0000
 XYZ=    1.7189   -0.8897  -12.1834 Q=    0.4100 A=    0.0000 R=    0.0000 C=    0.0000
 XYZ=    1.2310   -1.7017  -13.5136 Q=    0.4100 A=    0.0000 R=    0.0000 C=    0.0000
 XYZ=    8.6728    8.2001   -1.5824 Q=   -0.8200 A=    0.0000 R=    0.0000 C=    0.0000
 XYZ=    8.5894    8.5488   -2.5159 Q=    0.4100 A=    0.0000 R=    0.0000 C=    0.0000
 XYZ=    7.7610    8.0624   -1.1953 Q=    0.4100 A=    0.0000 R=    0.0000 C=    0.0000
 XYZ=   -5.8811    0.0229  -10.6520 Q=   -0.8200 A=    0.0000 R=    0.0000 C=    0.0000
 XYZ=   -6.4209    0.8644  -10.6273 Q=    0.4100 A=    0.0000 R=    0.0000 C=    0.0000
 XYZ=   -6.4899   -0.7661  -10.5685 Q=    0.4100 A=    0.0000 R=    0.0000 C=    0.0000
 XYZ=   -1.1705    2.5064  -12.5260 Q=   -0.8200 A=    0.0000 R=    0.0000 C=    0.0000
 XYZ=   -0.4823    2.8469  -11.8854 Q=    0.4100 A=    0.0000 R=    0.0000 C=    0.0000
 XYZ=   -1.5233    1.6289  -12.2009 Q=    0.4100 A=    0.0000 R=    0.0000 C=    0.0000
 XYZ=   -8.7946   -1.5782   -7.9689 Q=   -0.8200 A=    0.0000 R=    0.0000 C=    0.0000
 XYZ=   -9.6908   -1.1344   -7.9609 Q=    0.4100 A=    0.0000 R=    0.0000 C=    0.0000
 XYZ=   -8.8346   -2.3997   -8.5378 Q=    0.4100 A=    0.0000 R=    0.0000 C=    0.0000
 XYZ=    6.0512    6.9042    7.1894 Q=   -0.8200 A=    0.0000 R=    0.0000 C=    0.0000
 XYZ=    6.0262    7.2830    6.2642 Q=    0.4100 A=    0.0000 R=    0.0000 C=    0.0000
 XYZ=    6.1406    7.6481    7.8517 Q=    0.4100 A=    0.0000 R=    0.0000 C=    0.0000
 XYZ=   -1.4026   -1.1919  -12.9737 Q=   -0.8200 A=    0.0000 R=    0.0000 C=    0.0000
 XYZ=   -1.7345   -0.5303  -12.3013 Q=    0.4100 A=    0.0000 R=    0.0000 C=    0.0000
 XYZ=   -0.5061   -1.5330  -12.6911 Q=    0.4100 A=    0.0000 R=    0.0000 C=    0.0000
 XYZ=   12.6908   -3.6490    1.1390 Q=   -0.8200 A=    0.0000 R=    0.0000 C=    0.0000
 XYZ=   11.8291   -4.1541    1.0909 Q=    0.4100 A=    0.0000 R=    0.0000 C=    0.0000
 XYZ=   12.5125   -2.6731    1.0128 Q=    0.4100 A=    0.0000 R=    0.0000 C=    0.0000
 XYZ=   -1.8155  -10.7943   -4.6557 Q=   -0.8200 A=    0.0000 R=    0.0000 C=    0.0000
 XYZ=   -0.9149  -10.6267   -4.2545 Q=    0.4100 A=    0.0000 R=    0.0000 C=    0.0000
 XYZ=   -2.0230  -10.0765   -5.3203 Q=    0.4100 A=    0.0000 R=    0.0000 C=    0.0000
 XYZ=   -9.5209    1.7944    7.9485 Q=   -0.8200 A=    0.0000 R=    0.0000 C=    0.0000
 XYZ=   -9.1158    1.0394    7.4329 Q=    0.4100 A=    0.0000 R=    0.0000 C=    0.0000
 XYZ=   -8.8356    2.5095    8.0862 Q=    0.4100 A=    0.0000 R=    0.0000 C=    0.0000
 XYZ=   -8.5966   -7.7694    2.3877 Q=   -0.8200 A=    0.0000 R=    0.0000 C=    0.0000
 XYZ=   -8.9907   -6.8504    2.3801 Q=    0.4100 A=    0.0000 R=    0.0000 C=    0.0000
 XYZ=   -8.2298   -7.9672    3.2968 Q=    0.4100 A=    0.0000 R=    0.0000 C=    0.0000
 XYZ=    0.5900    2.2635   12.3711 Q=   -0.8200 A=    0.0000 R=    0.0000 C=    0.0000
 XYZ=    0.9099    2.4203   11.4367 Q=    0.4100 A=    0.0000 R=    0.0000 C=    0.0000
 XYZ=    0.5986    1.2827   12.5662 Q=    0.4100 A=    0.0000 R=    0.0000 C=    0.0000
 XYZ=    8.8843   -2.8492    7.7642 Q=   -0.8200 A=    0.0000 R=    0.0000 C=    0.0000
 XYZ=    8.7627   -2.0141    8.3006 Q=    0.4100 A=    0.0000 R=    0.0000 C=    0.0000
 XYZ=    9.1679   -3.5946    8.3675 Q=    0.4100 A=    0.0000 R=    0.0000 C=    0.0000
 XYZ=   12.5130   -1.3680    0.8647 Q=   -0.8200 A=    0.0000 R=    0.0000 C=    0.0000
 XYZ=   13.1660   -0.7468    0.4315 Q=    0.4100 A=    0.0000 R=    0.0000 C=    0.0000
 XYZ=   12.3647   -1.0874    1.8130 Q=    0.4100 A=    0.0000 R=    0.0000 C=    0.0000
 XYZ=   10.5735   -2.3986    6.4214 Q=   -0.8200 A=    0.0000 R=    0.0000 C=    0.0000
 XYZ=    9.7595   -2.5555    6.9808 Q=    0.4100 A=    0.0000 R=    0.0000 C=    0.0000
 XYZ=   11.3830   -2.7181    6.9141 Q=    0.4100 A=    0.0000 R=    0.0000 C=    0.0000
 XYZ=  -11.1017    5.0142   -4.6842 Q=   -0.8200 A=    0.0000 R=    0.0000 C=    0.0000
 XYZ=  -10.5870    4.6408   -5.4560 Q=    0.4100 A=    0.0000 R=    0.0000 C=    0.0000
 XYZ=  -11.0464    4.3833   -3.9103 Q=    0.4100 A=    0.0000 R=    0.0000 C=    0.0000
 XYZ=   -6.4088    5.4013   -8.6087 Q=   -0.8200 A=    0.0000 R=    0.0000 C=    0.0000
 XYZ=   -6.6943    6.2760   -9.0004 Q=    0.4100 A=    0.0000 R=    0.0000 C=    0.0000
 XYZ=   -6.2106    4.7550   -9.3456 Q=    0.4100 A=    0.0000 R=    0.0000 C=    0.0000
 XYZ=   -7.2332    1.9229  -10.4067 Q=   -0.8200 A=    0.0000 R=    0.0000 C=    0.0000
 XYZ=   -7.4555    1.5884   -9.4909 Q=    0.4100 A=    0.0000 R=    0.0000 C=    0.0000
 XYZ=   -8.0287    1.8154  -11.0030 Q=    0.4100 A=    0.0000 R=    0.0000 C=    0.0000
[...]
    39  O    0.000000   0.000000   0.000000   0.000000   0.000000   0.000000
    40  H    0.000000   0.000000   0.000000   0.000000   0.000000   0.000000
    41  H    0.000000   0.000000   0.000000   0.000000   0.000000   0.000000
    42  O    0.000000  -0.000001  -0.000030   0.000000   0.000000   0.000031
    43  H    0.000000   0.000000   0.000000   0.000000   0.000000  -0.000001
    44  H    0.000000   0.000000   0.000008   0.000000  -0.000001  -0.000001
    45  O    0.000000  -0.000134  -0.005678   0.000069   0.000877   0.000157
    46  H    0.000000  -0.000133   0.000010  -0.000035   0.001593  -0.000027
    47  H    0.000000   0.000000   0.000066   0.000000   0.000014  -0.000001
    48  O    0.000008   0.000083  -0.000490   0.000085   0.000077  -0.006544
    49  H    0.000000  -0.000003   0.000001   0.000000  -0.000003   0.002515
    50  H    0.000000  -0.000005   0.000316  -0.000016  -0.000022   0.000020
              31         32         33         34         35         36
     1  C   -0.000499  -0.000540  -0.002993   0.000458   0.000128   0.000218
     2  H   -0.000003  -0.000006  -0.000001   0.000000   0.000000   0.000046
     3  H    0.000000   0.000006   0.000000   0.000000   0.000000   0.000000
     4  C    0.000321   0.002623  -0.001239   0.008450   0.000244  -0.000024
     5  H    0.000000   0.000000  -0.000002   0.000000   0.000000   0.000000
     6  C    0.000028  -0.000334  -0.022510  -0.000648   0.000015  -0.000249
     7  H    0.000000   0.000000   0.000129   0.000656  -0.000013   0.000000
     8  O   -0.000001  -0.000003   0.006862  -0.000153   0.000058   0.000022
     9  O    0.000000   0.000000  -0.020286   0.003916   0.000163   0.000001
    10  H    0.000000   0.000000   0.002485   0.001728   0.000047  -0.000001
    11  H    0.000000   0.000000  -0.002957   0.001073   0.000041   0.000000
    12  O   -0.000089   0.000048   0.000162  -0.000043   0.000000   0.000053
    13  H    0.000003  -0.000003   0.000000   0.000000   0.000000   0.000000
    14  H    0.000000   0.000000   0.000002  -0.000015   0.000000  -0.000001
    15  O    0.000036  -0.001501  -0.000001   0.000000   0.000000  -0.000301
    16  H    0.000000   0.000030   0.000000   0.000000   0.000000  -0.000004
    17  H    0.000067   0.001286   0.000000   0.000000   0.000000  -0.000029
    18  O    0.000386   0.001750   0.000000   0.000000   0.000000  -0.000189
    19  H   -0.002298  -0.001273   0.000000   0.000000   0.000000   0.000002
    20  H    0.000032  -0.000099  -0.000002   0.000000   0.000000  -0.000006
    21  O   -0.000004   0.000030  -0.000001   0.000000   0.000000  -0.004171
    22  H    0.000000  -0.000034   0.000000   0.000000   0.000000  -0.000429
    23  H    0.000000   0.000020   0.000000   0.000000   0.000000  -0.000152
    24  O    0.000255   0.045048   0.000000   0.000000   0.000000  -0.002660
    25  H    0.000016   0.000000   0.000000   0.000000   0.000000   0.000071
    26  H    0.000052  -0.000247   0.000000   0.000000   0.000000   0.000928
    27  O    0.000088   0.002189  -0.000001   0.000000   0.000000  -0.054742
    28  H    0.000000  -0.000039   0.000000   0.000000   0.000000   0.002734
    29  H    0.000000  -0.000061   0.000000   0.000000   0.000000   0.027774
    30  O    0.200516   0.104720   0.000000   0.000000   0.000000   0.000142
    31  H    0.169614  -0.003662   0.000000   0.000000   0.000000  -0.000003
    32  H   -0.003662   0.209451   0.000000   0.000000   0.000000  -0.000095
    33  O    0.000000   0.000000   8.906974   0.144272   0.207517   0.000018
    34  H    0.000000   0.000000   0.144272   0.240771  -0.005591   0.000000
    35  H    0.000000   0.000000   0.207517  -0.005591   0.177283   0.000000
    36  O   -0.000003  -0.000095   0.000018   0.000000   0.000000   8.999115
    37  H    0.000000   0.000000  -0.000005   0.000000   0.000000   0.171505
    38  H    0.000000   0.000000   0.000000   0.000000   0.000000   0.202766
    39  O    0.000000   0.000000  -0.002225  -0.002300   0.000031   0.000000
    40  H    0.000000   0.000000  -0.000054   0.000058  -0.000009   0.000000
    41  H    0.000000   0.000000  -0.002041  -0.000788   0.000002   0.000000
    42  O    0.000000   0.000001  -0.000080   0.000014  -0.000004  -0.000430
    43  H    0.000000   0.000000  -0.000006   0.000000   0.000000  -0.000002
    44  H    0.000000   0.000000  -0.000036   0.000000   0.000000   0.000416
    45  O    0.000000   0.000022  -0.000081  -0.000002  -0.000001  -0.049264
    46  H    0.000000   0.000003  -0.000006   0.000000   0.000000   0.007280
    47  H    0.000000   0.000000   0.000006   0.000000   0.000000  -0.001566
    48  O    0.000144  -0.000533  -0.000003   0.000000   0.000000  -0.003629
    49  H   -0.000017   0.000014   0.000000   0.000000   0.000000   0.000148
    50  H    0.000000   0.000024   0.000000   0.000000   0.000000   0.001149
              37         38         39         40         41         42
     1  C    0.000104   0.000007   0.000627  -0.000009  -0.000178  -0.000103
     2  H   -0.000002   0.000000   0.000000   0.000000   0.000000   0.000002
     3  H    0.000000   0.000000   0.000000   0.000000   0.000000   0.000000
     4  C   -0.000132   0.000004  -0.001281   0.000000   0.001248  -0.000178
     5  H    0.000000   0.000000   0.000000   0.000000  -0.000001   0.000000
     6  C    0.000109   0.000007  -0.006448   0.000443  -0.000345  -0.000847
     7  H    0.000000   0.000000   0.000312   0.000015  -0.000303  -0.000011
     8  O    0.000003   0.000002  -0.000305  -0.000006   0.000315   0.000368
     9  O    0.000000   0.000000  -0.033069   0.000020   0.038363  -0.000409
    10  H    0.000000   0.000000   0.001779   0.000077   0.000593  -0.000009
    11  H    0.000000   0.000000  -0.001244   0.000009  -0.000420   0.000034
    12  O   -0.000001   0.000000   0.000012   0.000000  -0.000008  -0.000002
    13  H    0.000000   0.000000   0.000000   0.000000   0.000000   0.000005
    14  H    0.000000   0.000000   0.000001   0.000000   0.000002  -0.000013
    15  O   -0.000015   0.000003   0.000000   0.000000   0.000000   0.000000
    16  H    0.000000   0.000000   0.000000   0.000000   0.000000   0.000000
    17  H    0.000000   0.000001   0.000000   0.000000   0.000000   0.000000
    18  O   -0.000005   0.000002   0.000000   0.000000   0.000000  -0.000392
    19  H    0.000000   0.000000   0.000000   0.000000   0.000000   0.000029
    20  H    0.000000   0.000000   0.000000   0.000000   0.000000   0.000006
    21  O   -0.000033  -0.000041   0.000000   0.000000   0.000000   0.000001
    22  H    0.000013  -0.000142   0.000000   0.000000   0.000000   0.000000
    23  H    0.000002   0.000005   0.000000   0.000000   0.000000   0.000000
    24  O    0.000009  -0.000007   0.000000   0.000000   0.000000  -0.000003
    25  H    0.000000   0.000000   0.000000   0.000000   0.000000   0.000000
    26  H   -0.000031  -0.000060   0.000000   0.000000   0.000000  -0.000001
    27  O    0.001488  -0.002148   0.000000   0.000000   0.000000  -0.000030
    28  H    0.000043   0.000256   0.000000   0.000000   0.000000   0.000000
    29  H    0.001287  -0.001542   0.000000   0.000000   0.000000   0.000000
    30  O   -0.000001  -0.000003   0.000000   0.000000   0.000000   0.000031
    31  H    0.000000   0.000000   0.000000   0.000000   0.000000   0.000000
    32  H    0.000000   0.000000   0.000000   0.000000   0.000000   0.000001
    33  O   -0.000005   0.000000  -0.002225  -0.000054  -0.002041  -0.000080
    34  H    0.000000   0.000000  -0.002300   0.000058  -0.000788   0.000014
    35  H    0.000000   0.000000   0.000031  -0.000009   0.000002  -0.000004
    36  O    0.171505   0.202766   0.000000   0.000000   0.000000  -0.000430
    37  H    0.137023  -0.006614   0.000000   0.000000   0.000000   0.000008
    38  H   -0.006614   0.148648   0.000000   0.000000   0.000000  -0.000032
    39  O    0.000000   0.000000   8.869339   0.215004   0.158175  -0.000001
    40  H    0.000000   0.000000   0.215004   0.211982  -0.005310   0.000000
    41  H    0.000000   0.000000   0.158175  -0.005310   0.189744   0.000000
    42  O    0.000008  -0.000032  -0.000001   0.000000   0.000000   9.021526
    43  H    0.000000   0.000000   0.000000   0.000000   0.000000   0.194172
    44  H   -0.000025   0.000012   0.000000   0.000000   0.000000   0.133547
    45  O   -0.002838  -0.005668   0.000000   0.000000   0.000000  -0.073739
    46  H    0.001442  -0.002163   0.000000   0.000000   0.000000   0.000812
    47  H   -0.000194   0.000004   0.000000   0.000000   0.000000   0.003153
    48  O    0.000089   0.000075   0.000000   0.000000   0.000000   0.002196
    49  H   -0.000001   0.000000   0.000000   0.000000   0.000000  -0.000624
    50  H   -0.000034  -0.000046   0.000000   0.000000   0.000000  -0.001325
              43         44         45         46         47         48
     1  C   -0.000005  -0.000032  -0.000278   0.000132   0.000018   0.000223
     2  H    0.000000   0.000000   0.000003  -0.000004   0.000000  -0.000007
     3  H    0.000000   0.000000   0.000000   0.000000   0.000000   0.000000
     4  C    0.000010   0.000110   0.000035  -0.000093  -0.000028  -0.000130
     5  H    0.000000   0.000000   0.000000   0.000000   0.000000   0.000000
     6  C   -0.000051   0.000118  -0.000099   0.000159   0.000016  -0.000231
     7  H    0.000000   0.000000  -0.000002   0.000000   0.000000   0.000000
     8  O   -0.000021   0.000123  -0.000003   0.000013  -0.000005  -0.000159
     9  O    0.000004  -0.000011   0.000038  -0.000001   0.000000  -0.000005
    10  H    0.000000   0.000001  -0.000007   0.000000   0.000000   0.000000
    11  H    0.000000   0.000000  -0.000001   0.000000   0.000000   0.000000
    12  O    0.000048   0.000007   0.000171  -0.000014  -0.000002  -0.000813
    13  H    0.000000   0.000000  -0.000002   0.000000   0.000000  -0.000027
    14  H    0.000000  -0.000001   0.000010   0.000000   0.000000   0.000067
    15  O    0.000000   0.000000  -0.000012  -0.000011   0.000000   0.000019
    16  H    0.000000   0.000000   0.000000   0.000000   0.000000   0.000000
    17  H    0.000000   0.000000   0.000002   0.000001   0.000000  -0.000005
    18  O    0.000051   0.000477  -0.000696  -0.000091  -0.000009  -0.108994
    19  H   -0.000001   0.000000   0.000084   0.000002   0.000000   0.001856
    20  H   -0.000005  -0.000057   0.000093   0.000002   0.000000   0.001194
    21  O    0.000000   0.000000   0.000014   0.000052   0.000001   0.000023
    22  H    0.000000   0.000000  -0.000059  -0.000041   0.000000   0.000005
    23  H    0.000000   0.000000   0.000002   0.000002   0.000000  -0.000001
    24  O    0.000000   0.000001  -0.000002   0.000035   0.000000  -0.000162
    25  H    0.000000   0.000000   0.000000   0.000000   0.000000   0.000008
    26  H    0.000000   0.000000  -0.000134  -0.000133   0.000000   0.000083
    27  O    0.000000   0.000008  -0.005678   0.000010   0.000066  -0.000490
    28  H    0.000000   0.000000   0.000069  -0.000035   0.000000   0.000085
    29  H    0.000000  -0.000001   0.000877   0.001593   0.000014   0.000077
    30  O   -0.000001  -0.000001   0.000157  -0.000027  -0.000001  -0.006544
    31  H    0.000000   0.000000   0.000000   0.000000   0.000000   0.000144
    32  H    0.000000   0.000000   0.000022   0.000003   0.000000  -0.000533
    33  O   -0.000006  -0.000036  -0.000081  -0.000006   0.000006  -0.000003
    34  H    0.000000   0.000000  -0.000002   0.000000   0.000000   0.000000
    35  H    0.000000   0.000000  -0.000001   0.000000   0.000000   0.000000
    36  O   -0.000002   0.000416  -0.049264   0.007280  -0.001566  -0.003629
    37  H    0.000000  -0.000025  -0.002838   0.001442  -0.000194   0.000089
    38  H    0.000000   0.000012  -0.005668  -0.002163   0.000004   0.000075
    39  O    0.000000   0.000000   0.000000   0.000000   0.000000   0.000000
    40  H    0.000000   0.000000   0.000000   0.000000   0.000000   0.000000
    41  H    0.000000   0.000000   0.000000   0.000000   0.000000   0.000000
    42  O    0.194172   0.133547  -0.073739   0.000812   0.003153   0.002196
    43  H    0.154799  -0.001314   0.000401   0.000013  -0.000046   0.000904
    44  H   -0.001314   0.238616   0.028340  -0.000650  -0.000973   0.004451
    45  O    0.000401   0.028340   8.940192   0.171014   0.218928  -0.046507
    46  H    0.000013  -0.000650   0.171014   0.205015  -0.005603   0.003092
    47  H   -0.000046  -0.000973   0.218928  -0.005603   0.195876   0.001170
    48  O    0.000904   0.004451  -0.046507   0.003092   0.001170   9.037122
    49  H   -0.000049   0.000099   0.002579  -0.000072  -0.000031   0.156706
    50  H   -0.000016   0.000796   0.010219  -0.001616   0.001292   0.187524
              49         50
     1  C   -0.000185   0.000047
     2  H   -0.000001  -0.000001
     3  H    0.000000   0.000000
     4  C    0.000237   0.000046
     5  H    0.000000   0.000000
     6  C   -0.000035  -0.000198
     7  H    0.000000   0.000000
     8  O   -0.000013  -0.000001
     9  O    0.000000   0.000000
    10  H    0.000000   0.000000
    11  H    0.000000   0.000000
    12  O   -0.000296  -0.000211
    13  H   -0.000007   0.000001
    14  H    0.000013  -0.000004
    15  O    0.000000   0.000000
    16  H    0.000000   0.000000
    17  H    0.000000   0.000000
    18  O    0.007349   0.002229
    19  H    0.004540  -0.000343
    20  H   -0.001584  -0.000443
    21  O   -0.000001  -0.000002
    22  H    0.000000   0.000000
    23  H    0.000000   0.000000
    24  O    0.000020   0.000017
    25  H    0.000000   0.000000
    26  H   -0.000003  -0.000005
    27  O    0.000001   0.000316
    28  H    0.000000  -0.000016
    29  H   -0.000003  -0.000022
    30  O    0.002515   0.000020
    31  H   -0.000017   0.000000
    32  H    0.000014   0.000024
    33  O    0.000000   0.000000
    34  H    0.000000   0.000000
    35  H    0.000000   0.000000
    36  O    0.000148   0.001149
    37  H   -0.000001  -0.000034
    38  H    0.000000  -0.000046
    39  O    0.000000   0.000000
    40  H    0.000000   0.000000
    41  H    0.000000   0.000000
    42  O   -0.000624  -0.001325
    43  H   -0.000049  -0.000016
    44  H    0.000099   0.000796
    45  O    0.002579   0.010219
    46  H   -0.000072  -0.001616
    47  H   -0.000031   0.001292
    48  O    0.156706   0.187524
    49  H    0.208223  -0.009542
    50  H   -0.009542   0.249729
 Mulliken charges:
               1
     1  C   -0.287358
     2  H    0.259384
     3  H    0.232330
     4  C   -0.329842
     5  H    0.229870
     6  C    0.076231
     7  H    0.150889
     8  O   -0.298052
     9  O   -1.171204
    10  H    0.455543
    11  H    0.643159
    12  O   -1.086193
    13  H    0.629246
    14  H    0.501515
    15  O   -1.096012
    16  H    0.566313
    17  H    0.569410
    18  O   -1.257174
    19  H    0.593486
    20  H    0.648993
    21  O   -1.260691
    22  H    0.593479
    23  H    0.581085
    24  O   -1.356229
    25  H    0.691637
    26  H    0.659396
    27  O   -1.159213
    28  H    0.572560
    29  H    0.618914
    30  O   -1.279955
    31  H    0.635022
    32  H    0.641164
    33  O   -1.213900
    34  H    0.608144
    35  H    0.620090
    36  O   -1.296444
    37  H    0.696804
    38  H    0.666675
    39  O   -1.198406
    40  H    0.577779
    41  H    0.620953
    42  O   -1.277674
    43  H    0.651115
    44  H    0.595977
    45  O   -1.188177
    46  H    0.619889
    47  H    0.587913
    48  O   -1.228875
    49  H    0.630019
    50  H    0.560418
 Sum of Mulliken charges =   0.00000
 Mulliken charges with hydrogens summed into heavy atoms:
               1
     1  C    0.204356
     4  C   -0.099971
     6  C    0.227119
     8  O   -0.298052
     9  O   -0.072502
    12  O    0.044568
    15  O    0.039711
    18  O   -0.014695
    21  O   -0.086127
    24  O   -0.005197
    27  O    0.032261
    30  O   -0.003770
    33  O    0.014334
    36  O    0.067036
    39  O    0.000326
    42  O   -0.030582
    45  O    0.019625
    48  O   -0.038439
 Electronic spatial extent (au):  <R**2>=          10083.3811
 Charge=              0.0000 electrons
 Dipole moment (field-independent basis, Debye):
    X=             -4.4825    Y=             -7.1115    Z=              2.2017  Tot=              8.6899
 Quadrupole moment (field-independent basis, Debye-Ang):
   XX=           -105.8937   YY=           -141.5745   ZZ=            -97.6301
   XY=             18.8476   XZ=              8.9777   YZ=            -58.1383
 Traceless Quadrupole moment (field-independent basis, Debye-Ang):
   XX=              9.1391   YY=            -26.5418   ZZ=             17.4027
   XY=             18.8476   XZ=              8.9777   YZ=            -58.1383
 Octapole moment (field-independent basis, Debye-Ang**2):
  XXX=           -322.5979  YYY=           -149.5921  ZZZ=             40.3869  XYY=            -44.9711
  XXY=            132.1168  XXZ=            -17.8889  XZZ=             43.0004  YZZ=             68.6568
  YYZ=              2.0171  XYZ=            160.0425
 Hexadecapole moment (field-independent basis, Debye-Ang**3):
 XXXX=          -6810.9499 YYYY=          -3096.6414 ZZZZ=          -1608.4980 XXXY=           1443.4883
 XXXZ=           -544.0421 YYYX=            273.9495 YYYZ=           -276.3194 ZZZX=           -192.9189
 ZZZY=           -521.7781 XXYY=          -1894.0878 XXZZ=          -1331.9753 YYZZ=           -871.5234
 XXYZ=           -505.9671 YYXZ=            123.6836 ZZXY=           -174.3233
 N-N= 1.199973602001D+03 E-N=-6.369033939553D+03  KE= 1.249604039657D+03
 Leave Link  601 at Fri Sep 14 18:03:28 2018, MaxMem=    33554432 cpu:         2.2
 (Enter /usr/local/pacerepov1/gaussian/G09D01LINDA/g09/l9999.exe)

 Test job not archived.
 1\1\GINC-RICH133-C36-18-R\SP\RLC-wPBE TD-FC\6-31+G(d)\C3H32O15\ROOT\14
 -Sep-2018\0\\#p td=(nstates=15)/6-31+g(d) lc-wpbe charge\\Acroleina in
  Water\\0,1\C,0,0.485154,0.480443,-1.430142\H,0,1.461403,0.187773,-1.0
 55732\H,0,0.429244,0.878853,-2.437062\C,0,-0.605127,0.346563,-0.658432
 \H,0,-1.591686,0.632893,-1.012412\C,0,-0.508516,-0.199107,0.712798\H,0
 ,-1.458487,-0.272107,1.272438\O,0,0.544883,-0.561317,1.236519\O,0,-1.3
 39518,-1.016849,3.236238\H,0,-1.108948,-0.494559,2.415229\H,0,-0.85618
 8,-0.632119,4.022639\O,0,1.661812,1.989291,1.621188\H,0,1.452252,2.910
 501,1.293258\H,0,0.809972,1.503451,1.817008\O,0,2.290012,-0.681989,-3.
 735672\H,0,2.108402,-0.227739,-4.607892\H,0,2.945272,-0.141079,-3.2083
 21\O,0,3.981002,1.958231,1.409788\H,0,4.083531,2.135371,0.430928\H,0,3
 .009032,1.903401,1.638518\O,0,3.721512,-2.641589,-3.392591\H,0,4.50282
 1,-2.342079,-2.844951\H,0,3.160132,-1.849789,-3.633351\O,0,4.515341,0.
 347931,-2.774091\H,0,5.098251,0.500801,-3.572131\H,0,4.806972,-0.48452
 9,-2.302912\O,0,5.296911,-1.858199,-2.015702\H,0,6.295941,-1.876529,-1
 .974802\H,0,4.922651,-2.409239,-1.269822\O,0,4.667881,2.212951,-1.1137
 72\H,0,4.388011,3.104971,-1.468812\H,0,4.478841,1.507901,-1.797342\O,0
 ,-0.130248,-3.296149,3.087929\H,0,-0.602988,-2.431919,2.915689\H,0,-0.
 781128,-3.966969,3.443369\O,0,4.686902,-2.989579,-0.043592\H,0,3.98659
 2,-3.605569,0.317238\H,0,5.574811,-3.449399,-0.028952\O,0,-3.709918,-1
 .518559,3.908169\H,0,-3.664708,-2.003359,4.781659\H,0,-2.792968,-1.455
 569,3.514109\O,0,3.757872,-1.153179,4.096559\H,0,3.973502,-0.223849,4.
 396389\H,0,4.043312,-1.271169,3.145429\O,0,4.837971,-1.950419,2.085958
 \H,0,4.757291,-2.254789,1.136808\H,0,5.063652,-2.731409,2.668329\O,0,5
 .688231,0.512411,1.805318\H,0,5.016272,1.248471,1.723148\H,0,5.228382,
 -0.370659,1.711458\\Version=EM64L-G09RevD.01\State=1-A\HF=-1758.744730
 8\RMSD=3.338e-09\PG=C01 [X(C3H32O15)]\\@


 A successful marriage requires falling in love
 many times, always with the same person.
                           -- Mignon McLaughlin
 Job cpu time:       0 days  3 hours 57 minutes 20.2 seconds.
 File lengths (MBytes):  RWF=    792 Int=      0 D2E=      0 Chk=     96 Scr=      2
 Normal termination of Gaussian 09 at Fri Sep 14 18:03:33 2018.
