 Entering Gaussian System, Link 0=g09
 Input=Acroleina_water_15_45c.gjf
 Output=Acroleina_water_15_45c.log
 Initial command:
 /usr/local/pacerepov1/gaussian/G09D01LINDA/g09/l1.exe /nv/hp18/holiveira7/scratch/22411922/Gau-24133.inp -scrdir=/nv/hp18/holiveira7/scratch/22411922/
 Entering Link 1 = /usr/local/pacerepov1/gaussian/G09D01LINDA/g09/l1.exe PID=     24134.
  
 Copyright (c) 1988,1990,1992,1993,1995,1998,2003,2009,2013,
            Gaussian, Inc.  All Rights Reserved.
  
 This is part of the Gaussian(R) 09 program.  It is based on
 the Gaussian(R) 03 system (copyright 2003, Gaussian, Inc.),
 the Gaussian(R) 98 system (copyright 1998, Gaussian, Inc.),
 the Gaussian(R) 94 system (copyright 1995, Gaussian, Inc.),
 the Gaussian 92(TM) system (copyright 1992, Gaussian, Inc.),
 the Gaussian 90(TM) system (copyright 1990, Gaussian, Inc.),
 the Gaussian 88(TM) system (copyright 1988, Gaussian, Inc.),
 the Gaussian 86(TM) system (copyright 1986, Carnegie Mellon
 University), and the Gaussian 82(TM) system (copyright 1983,
 Carnegie Mellon University). Gaussian is a federally registered
 trademark of Gaussian, Inc.
  
 This software contains proprietary and confidential information,
 including trade secrets, belonging to Gaussian, Inc.
  
 This software is provided under written license and may be
 used, copied, transmitted, or stored only in accord with that
 written license.
  
 The following legend is applicable only to US Government
 contracts under FAR:
  
                    RESTRICTED RIGHTS LEGEND
  
 Use, reproduction and disclosure by the US Government is
 subject to restrictions as set forth in subparagraphs (a)
 and (c) of the Commercial Computer Software - Restricted
 Rights clause in FAR 52.227-19.
  
 Gaussian, Inc.
 340 Quinnipiac St., Bldg. 40, Wallingford CT 06492
  
  
 ---------------------------------------------------------------
 Warning -- This program may not be used in any manner that
 competes with the business of Gaussian, Inc. or will provide
 assistance to any competitor of Gaussian, Inc.  The licensee
 of this program is prohibited from giving any competitor of
 Gaussian, Inc. access to this program.  By using this program,
 the user acknowledges that Gaussian, Inc. is engaged in the
 business of creating and licensing software in the field of
 computational chemistry and represents and warrants to the
 licensee that it is not a competitor of Gaussian, Inc. and that
 it will not use this program in any manner prohibited above.
 ---------------------------------------------------------------
  

 Cite this work as:
 Gaussian 09, Revision D.01,
 M. J. Frisch, G. W. Trucks, H. B. Schlegel, G. E. Scuseria, 
 M. A. Robb, J. R. Cheeseman, G. Scalmani, V. Barone, B. Mennucci, 
 G. A. Petersson, H. Nakatsuji, M. Caricato, X. Li, H. P. Hratchian, 
 A. F. Izmaylov, J. Bloino, G. Zheng, J. L. Sonnenberg, M. Hada, 
 M. Ehara, K. Toyota, R. Fukuda, J. Hasegawa, M. Ishida, T. Nakajima, 
 Y. Honda, O. Kitao, H. Nakai, T. Vreven, J. A. Montgomery, Jr., 
 J. E. Peralta, F. Ogliaro, M. Bearpark, J. J. Heyd, E. Brothers, 
 K. N. Kudin, V. N. Staroverov, T. Keith, R. Kobayashi, J. Normand, 
 K. Raghavachari, A. Rendell, J. C. Burant, S. S. Iyengar, J. Tomasi, 
 M. Cossi, N. Rega, J. M. Millam, M. Klene, J. E. Knox, J. B. Cross, 
 V. Bakken, C. Adamo, J. Jaramillo, R. Gomperts, R. E. Stratmann, 
 O. Yazyev, A. J. Austin, R. Cammi, C. Pomelli, J. W. Ochterski, 
 R. L. Martin, K. Morokuma, V. G. Zakrzewski, G. A. Voth, 
 P. Salvador, J. J. Dannenberg, S. Dapprich, A. D. Daniels, 
 O. Farkas, J. B. Foresman, J. V. Ortiz, J. Cioslowski, 
 and D. J. Fox, Gaussian, Inc., Wallingford CT, 2013.
 
 ******************************************
 Gaussian 09:  EM64L-G09RevD.01 24-Apr-2013
                14-Sep-2018 
 ******************************************
 %chk=Acrolina_Din_45.chk
 %nprocshared=10
 Will use up to   10 processors via shared memory.
 -------------------------------------------
 #p td=(nstates=15)/6-31+g(d) lc-wpbe charge
 -------------------------------------------
 1/18=10,28=-2,38=1,125=101/1;
 2/12=2,17=6,18=5,40=1/2;
 3/5=1,6=6,7=11,11=9,16=1,25=1,30=1,74=-41/1,2,8,3;
 4//1;
 5/5=2,38=5/2;
 8/6=1,10=2,108=15/1;
 9/41=15,42=1,70=2/14;
 6/7=2,8=2,9=2,10=2/1;
 99/5=1,9=1/99;
 Leave Link    1 at Fri Sep 14 17:16:06 2018, MaxMem=           0 cpu:        11.4
 (Enter /usr/local/pacerepov1/gaussian/G09D01LINDA/g09/l101.exe)
 ------------------
 Acroleina in Water
 ------------------
 Symbolic Z-matrix:
 Charge =  0 Multiplicity = 1
 C                     0.48515   0.48044  -1.43014 
 H                     1.4614    0.18777  -1.05573 
 H                     0.42924   0.87885  -2.43706 
 C                    -0.60513   0.34656  -0.65843 
 H                    -1.59169   0.63289  -1.01241 
 C                    -0.50852  -0.19911   0.7128 
 H                    -1.45849  -0.27211   1.27244 
 O                     0.54488  -0.56132   1.23652 
 O                    -1.51718  -1.00499   3.15713 
 H                    -1.18469  -0.39779   2.43549 
 H                    -1.41352  -0.55589   4.0446 
 O                     1.10414   3.77995   0.77678 
 H                     1.6851    3.96078  -0.01681 
 H                     0.1474    3.93822   0.53243 
 O                    -0.9859    4.4642    0.00005 
 H                    -0.47086   5.28939  -0.23193 
 H                    -1.94304   4.58351  -0.26394 
 O                     1.89597   2.13416   2.17523 
 H                     1.57972   2.90229   1.61841 
 H                     1.15905   1.83708   2.78243 
 O                     2.32356  -0.94662  -3.86965 
 H                     1.94867  -0.68219  -4.75826 
 H                     2.86976  -0.19434  -3.50118 
 O                     3.86777  -2.75468  -3.59299 
 H                     4.44433  -2.55016  -2.8019 
 H                     3.2053   -2.01679  -3.72225 
 O                     4.13274   0.05133  -2.65145 
 H                     4.66173   0.03733  -3.49997 
 H                     4.35202  -0.75939  -2.10859 
 O                     1.21534  -4.61109   2.18237 
 H                     0.5353   -3.90929   2.39475 
 H                     1.45737  -5.10431   3.01795 
 O                    -0.28158  -3.27487   3.24051 
 H                    -0.89339  -2.49853   3.08876 
 H                    -0.80136  -4.03916   3.62217 
 O                     4.42781  -3.13678  -0.08339 
 H                     3.77807  -3.77795   0.32504 
 H                     5.35653  -3.49351   0.01803 
 O                    -3.84935  -1.15268   3.68379 
 H                    -3.81097  -1.70988   4.51332 
 H                    -2.92272  -1.00645   3.33737 
 O                     3.08385  -4.70768   0.8355 
 H                     2.16713  -4.58153   1.21467 
 H                     3.048    -5.37556   0.09206 
 O                     5.2974   -1.90984  -1.74759 
 H                     6.09602  -1.40234  -1.42398 
 H                     4.94756  -2.48674  -1.00945 
 O                     1.0379   -1.85127   4.41247 
 H                     1.95327  -1.80298   4.01269 
 H                     0.43833  -2.37783   3.80972 
 
 NAtoms=     50 NQM=       50 NQMF=       0 NMMI=      0 NMMIF=      0
                NMic=       0 NMicF=      0.
                    Isotopes and Nuclear Properties:
 (Nuclear quadrupole moments (NQMom) in fm**2, nuclear magnetic moments (NMagM)
  in nuclear magnetons)

  Atom         1           2           3           4           5           6           7           8           9          10
 IAtWgt=          12           1           1          12           1          12           1          16          16           1
 AtmWgt=  12.0000000   1.0078250   1.0078250  12.0000000   1.0078250  12.0000000   1.0078250  15.9949146  15.9949146   1.0078250
 NucSpn=           0           1           1           0           1           0           1           0           0           1
 AtZEff=   0.0000000   0.0000000   0.0000000   0.0000000   0.0000000   0.0000000   0.0000000   0.0000000   0.0000000   0.0000000
 NQMom=    0.0000000   0.0000000   0.0000000   0.0000000   0.0000000   0.0000000   0.0000000   0.0000000   0.0000000   0.0000000
 NMagM=    0.0000000   2.7928460   2.7928460   0.0000000   2.7928460   0.0000000   2.7928460   0.0000000   0.0000000   2.7928460
 AtZNuc=   6.0000000   1.0000000   1.0000000   6.0000000   1.0000000   6.0000000   1.0000000   8.0000000   8.0000000   1.0000000

  Atom        11          12          13          14          15          16          17          18          19          20
 IAtWgt=           1          16           1           1          16           1           1          16           1           1
 AtmWgt=   1.0078250  15.9949146   1.0078250   1.0078250  15.9949146   1.0078250   1.0078250  15.9949146   1.0078250   1.0078250
 NucSpn=           1           0           1           1           0           1           1           0           1           1
 AtZEff=   0.0000000   0.0000000   0.0000000   0.0000000   0.0000000   0.0000000   0.0000000   0.0000000   0.0000000   0.0000000
 NQMom=    0.0000000   0.0000000   0.0000000   0.0000000   0.0000000   0.0000000   0.0000000   0.0000000   0.0000000   0.0000000
 NMagM=    2.7928460   0.0000000   2.7928460   2.7928460   0.0000000   2.7928460   2.7928460   0.0000000   2.7928460   2.7928460
 AtZNuc=   1.0000000   8.0000000   1.0000000   1.0000000   8.0000000   1.0000000   1.0000000   8.0000000   1.0000000   1.0000000

  Atom        21          22          23          24          25          26          27          28          29          30
 IAtWgt=          16           1           1          16           1           1          16           1           1          16
 AtmWgt=  15.9949146   1.0078250   1.0078250  15.9949146   1.0078250   1.0078250  15.9949146   1.0078250   1.0078250  15.9949146
 NucSpn=           0           1           1           0           1           1           0           1           1           0
 AtZEff=   0.0000000   0.0000000   0.0000000   0.0000000   0.0000000   0.0000000   0.0000000   0.0000000   0.0000000   0.0000000
 NQMom=    0.0000000   0.0000000   0.0000000   0.0000000   0.0000000   0.0000000   0.0000000   0.0000000   0.0000000   0.0000000
 NMagM=    0.0000000   2.7928460   2.7928460   0.0000000   2.7928460   2.7928460   0.0000000   2.7928460   2.7928460   0.0000000
 AtZNuc=   8.0000000   1.0000000   1.0000000   8.0000000   1.0000000   1.0000000   8.0000000   1.0000000   1.0000000   8.0000000

  Atom        31          32          33          34          35          36          37          38          39          40
 IAtWgt=           1           1          16           1           1          16           1           1          16           1
 AtmWgt=   1.0078250   1.0078250  15.9949146   1.0078250   1.0078250  15.9949146   1.0078250   1.0078250  15.9949146   1.0078250
 NucSpn=           1           1           0           1           1           0           1           1           0           1
 AtZEff=   0.0000000   0.0000000   0.0000000   0.0000000   0.0000000   0.0000000   0.0000000   0.0000000   0.0000000   0.0000000
 NQMom=    0.0000000   0.0000000   0.0000000   0.0000000   0.0000000   0.0000000   0.0000000   0.0000000   0.0000000   0.0000000
 NMagM=    2.7928460   2.7928460   0.0000000   2.7928460   2.7928460   0.0000000   2.7928460   2.7928460   0.0000000   2.7928460
 AtZNuc=   1.0000000   1.0000000   8.0000000   1.0000000   1.0000000   8.0000000   1.0000000   1.0000000   8.0000000   1.0000000

  Atom        41          42          43          44          45          46          47          48          49          50
 IAtWgt=           1          16           1           1          16           1           1          16           1           1
 AtmWgt=   1.0078250  15.9949146   1.0078250   1.0078250  15.9949146   1.0078250   1.0078250  15.9949146   1.0078250   1.0078250
 NucSpn=           1           0           1           1           0           1           1           0           1           1
 AtZEff=   0.0000000   0.0000000   0.0000000   0.0000000   0.0000000   0.0000000   0.0000000   0.0000000   0.0000000   0.0000000
 NQMom=    0.0000000   0.0000000   0.0000000   0.0000000   0.0000000   0.0000000   0.0000000   0.0000000   0.0000000   0.0000000
 NMagM=    2.7928460   0.0000000   2.7928460   2.7928460   0.0000000   2.7928460   2.7928460   0.0000000   2.7928460   2.7928460
 AtZNuc=   1.0000000   8.0000000   1.0000000   1.0000000   8.0000000   1.0000000   1.0000000   8.0000000   1.0000000   1.0000000
 Background charge distribution read from input stream:
 Point Charges:
 XYZ=    4.6722   -1.6537    1.8727 Q=   -0.8200 A=    0.0000 R=    0.0000 C=    0.0000
 XYZ=    4.3497   -2.2012    1.1005 Q=    0.4100 A=    0.0000 R=    0.0000 C=    0.0000
 XYZ=    5.2605   -2.2140    2.4558 Q=    0.4100 A=    0.0000 R=    0.0000 C=    0.0000
 XYZ=    3.2456   -1.2250    3.7090 Q=   -0.8200 A=    0.0000 R=    0.0000 C=    0.0000
 XYZ=    3.5225   -0.3482    4.1022 Q=    0.4100 A=    0.0000 R=    0.0000 C=    0.0000
 XYZ=    3.6748   -1.3387    2.8129 Q=    0.4100 A=    0.0000 R=    0.0000 C=    0.0000
 XYZ=    3.2044   -5.0722   -3.2211 Q=   -0.8200 A=    0.0000 R=    0.0000 C=    0.0000
 XYZ=    3.4668   -4.1189   -3.3707 Q=    0.4100 A=    0.0000 R=    0.0000 C=    0.0000
 XYZ=    2.8115   -5.4455   -4.0615 Q=    0.4100 A=    0.0000 R=    0.0000 C=    0.0000
 XYZ=    4.3134    1.9816   -1.2278 Q=   -0.8200 A=    0.0000 R=    0.0000 C=    0.0000
 XYZ=    4.3130    2.8452   -1.7321 Q=    0.4100 A=    0.0000 R=    0.0000 C=    0.0000
 XYZ=    4.2398    1.2197   -1.8714 Q=    0.4100 A=    0.0000 R=    0.0000 C=    0.0000
 XYZ=   -3.4064    4.6939   -0.4046 Q=   -0.8200 A=    0.0000 R=    0.0000 C=    0.0000
 XYZ=   -4.2282    4.2819   -0.7981 Q=    0.4100 A=    0.0000 R=    0.0000 C=    0.0000
 XYZ=   -3.5542    4.8677    0.5691 Q=    0.4100 A=    0.0000 R=    0.0000 C=    0.0000
 XYZ=   -0.4604   -0.4859    5.3769 Q=   -0.8200 A=    0.0000 R=    0.0000 C=    0.0000
 XYZ=   -0.0954    0.2844    5.8998 Q=    0.4100 A=    0.0000 R=    0.0000 C=    0.0000
 XYZ=    0.2949   -1.0050    4.9770 Q=    0.4100 A=    0.0000 R=    0.0000 C=    0.0000
 XYZ=    4.0183    2.0005    1.3365 Q=   -0.8200 A=    0.0000 R=    0.0000 C=    0.0000
 XYZ=    3.9207    2.0821    0.3447 Q=    0.4100 A=    0.0000 R=    0.0000 C=    0.0000
 XYZ=    3.1134    1.9245    1.7554 Q=    0.4100 A=    0.0000 R=    0.0000 C=    0.0000
 XYZ=    1.6365   -0.2844   -6.1122 Q=   -0.8200 A=    0.0000 R=    0.0000 C=    0.0000
 XYZ=    1.8040    0.4906   -6.7216 Q=    0.4100 A=    0.0000 R=    0.0000 C=    0.0000
 XYZ=    0.6551   -0.4728   -6.0748 Q=    0.4100 A=    0.0000 R=    0.0000 C=    0.0000
 XYZ=    2.8575   -6.0531   -0.8830 Q=   -0.8200 A=    0.0000 R=    0.0000 C=    0.0000
 XYZ=    3.6155   -6.6307   -0.5796 Q=    0.4100 A=    0.0000 R=    0.0000 C=    0.0000
 XYZ=    2.9448   -5.8765   -1.8634 Q=    0.4100 A=    0.0000 R=    0.0000 C=    0.0000
 XYZ=    3.6245   -3.4008   -5.7493 Q=   -0.8200 A=    0.0000 R=    0.0000 C=    0.0000
 XYZ=    3.7618   -2.9813   -4.8520 Q=    0.4100 A=    0.0000 R=    0.0000 C=    0.0000
 XYZ=    4.4608   -3.8730   -6.0280 Q=    0.4100 A=    0.0000 R=    0.0000 C=    0.0000
 XYZ=    1.0170   -6.5081    0.6089 Q=   -0.8200 A=    0.0000 R=    0.0000 C=    0.0000
 XYZ=    1.2086   -5.9194    1.3942 Q=    0.4100 A=    0.0000 R=    0.0000 C=    0.0000
 XYZ=    1.7661   -6.4391   -0.0499 Q=    0.4100 A=    0.0000 R=    0.0000 C=    0.0000
 XYZ=    2.2670    5.5046    2.1369 Q=   -0.8200 A=    0.0000 R=    0.0000 C=    0.0000
 XYZ=    1.7133    4.7106    1.8859 Q=    0.4100 A=    0.0000 R=    0.0000 C=    0.0000
 XYZ=    2.3334    6.1251    1.3556 Q=    0.4100 A=    0.0000 R=    0.0000 C=    0.0000
 XYZ=   -2.7246    6.5185   -1.8553 Q=   -0.8200 A=    0.0000 R=    0.0000 C=    0.0000
 XYZ=   -3.0870    5.7428   -1.3385 Q=    0.4100 A=    0.0000 R=    0.0000 C=    0.0000
 XYZ=   -2.4830    7.2557   -1.2243 Q=    0.4100 A=    0.0000 R=    0.0000 C=    0.0000
 XYZ=   -3.8962    4.9896    1.9310 Q=   -0.8200 A=    0.0000 R=    0.0000 C=    0.0000
 XYZ=   -4.8305    4.6548    1.8083 Q=    0.4100 A=    0.0000 R=    0.0000 C=    0.0000
 XYZ=   -3.4154    4.4038    2.5835 Q=    0.4100 A=    0.0000 R=    0.0000 C=    0.0000
 XYZ=    5.3334   -5.3155   -1.8956 Q=   -0.8200 A=    0.0000 R=    0.0000 C=    0.0000
 XYZ=    4.5166   -5.1795   -2.4564 Q=    0.4100 A=    0.0000 R=    0.0000 C=    0.0000
 XYZ=    6.1170   -5.5028   -2.4880 Q=    0.4100 A=    0.0000 R=    0.0000 C=    0.0000
 XYZ=    0.5709    6.0876   -0.9787 Q=   -0.8200 A=    0.0000 R=    0.0000 C=    0.0000
 XYZ=    1.4409    5.6189   -1.1321 Q=    0.4100 A=    0.0000 R=    0.0000 C=    0.0000
 XYZ=    0.1853    6.3704   -1.8570 Q=    0.4100 A=    0.0000 R=    0.0000 C=    0.0000
 XYZ=    4.3242   -5.2364    2.6743 Q=   -0.8200 A=    0.0000 R=    0.0000 C=    0.0000
 XYZ=    3.9055   -4.9176    1.8239 Q=    0.4100 A=    0.0000 R=    0.0000 C=    0.0000
 XYZ=    3.6703   -5.8029    3.1758 Q=    0.4100 A=    0.0000 R=    0.0000 C=    0.0000
 XYZ=    5.8391    0.5420    1.4512 Q=   -0.8200 A=    0.0000 R=    0.0000 C=    0.0000
 XYZ=    5.0489    1.1280    1.2713 Q=    0.4100 A=    0.0000 R=    0.0000 C=    0.0000
 XYZ=    5.5428   -0.4120    1.4981 Q=    0.4100 A=    0.0000 R=    0.0000 C=    0.0000
 XYZ=    2.6734    4.9415   -0.9319 Q=   -0.8200 A=    0.0000 R=    0.0000 C=    0.0000
 XYZ=    2.9857    5.7213   -0.3893 Q=    0.4100 A=    0.0000 R=    0.0000 C=    0.0000
 XYZ=    3.3700    4.7069   -1.6099 Q=    0.4100 A=    0.0000 R=    0.0000 C=    0.0000
 XYZ=   -5.8973   -1.8490    2.6420 Q=   -0.8200 A=    0.0000 R=    0.0000 C=    0.0000
 XYZ=   -4.9703   -1.5979    2.9208 Q=    0.4100 A=    0.0000 R=    0.0000 C=    0.0000
 XYZ=   -6.1050   -2.7714    2.9679 Q=    0.4100 A=    0.0000 R=    0.0000 C=    0.0000
 XYZ=    1.9363   -2.7191    6.2561 Q=   -0.8200 A=    0.0000 R=    0.0000 C=    0.0000
 XYZ=    1.4123   -2.4233    5.4574 Q=    0.4100 A=    0.0000 R=    0.0000 C=    0.0000
 XYZ=    2.0057   -1.9636    6.9077 Q=    0.4100 A=    0.0000 R=    0.0000 C=    0.0000
 XYZ=   -0.4754    4.9299   -4.6524 Q=   -0.8200 A=    0.0000 R=    0.0000 C=    0.0000
 XYZ=   -0.7808    4.6899   -5.5738 Q=    0.4100 A=    0.0000 R=    0.0000 C=    0.0000
 XYZ=    0.4976    4.7189   -4.5581 Q=    0.4100 A=    0.0000 R=    0.0000 C=    0.0000
 XYZ=   -0.6608    6.4765   -2.8987 Q=   -0.8200 A=    0.0000 R=    0.0000 C=    0.0000
 XYZ=   -1.5591    6.3370   -2.4820 Q=    0.4100 A=    0.0000 R=    0.0000 C=    0.0000
 XYZ=   -0.5970    5.9403   -3.7404 Q=    0.4100 A=    0.0000 R=    0.0000 C=    0.0000
 XYZ=   -1.7798   -2.2625    6.4635 Q=   -0.8200 A=    0.0000 R=    0.0000 C=    0.0000
 XYZ=   -1.2835   -1.5381    5.9849 Q=    0.4100 A=    0.0000 R=    0.0000 C=    0.0000
 XYZ=   -2.5668   -2.5456    5.9153 Q=    0.4100 A=    0.0000 R=    0.0000 C=    0.0000
 XYZ=    4.0415   -2.6082    5.4676 Q=   -0.8200 A=    0.0000 R=    0.0000 C=    0.0000
 XYZ=    3.8742   -1.9884    4.7008 Q=    0.4100 A=    0.0000 R=    0.0000 C=    0.0000
 XYZ=    3.1731   -2.8341    5.9091 Q=    0.4100 A=    0.0000 R=    0.0000 C=    0.0000
 XYZ=   -5.7907    3.7487   -1.1056 Q=   -0.8200 A=    0.0000 R=    0.0000 C=    0.0000
 XYZ=   -6.1303    4.5511   -0.6148 Q=    0.4100 A=    0.0000 R=    0.0000 C=    0.0000
 XYZ=   -6.4546    3.0049   -1.0282 Q=    0.4100 A=    0.0000 R=    0.0000 C=    0.0000
 XYZ=   -6.0165   -0.2080    4.4549 Q=   -0.8200 A=    0.0000 R=    0.0000 C=    0.0000
 XYZ=   -5.0406   -0.3610    4.2993 Q=    0.4100 A=    0.0000 R=    0.0000 C=    0.0000
 XYZ=   -6.5459   -0.7130    3.7731 Q=    0.4100 A=    0.0000 R=    0.0000 C=    0.0000
 XYZ=    6.5124    1.8031   -0.4767 Q=   -0.8200 A=    0.0000 R=    0.0000 C=    0.0000
 XYZ=    5.6143    1.9481   -0.8919 Q=    0.4100 A=    0.0000 R=    0.0000 C=    0.0000
 XYZ=    6.4003    1.3661    0.4158 Q=    0.4100 A=    0.0000 R=    0.0000 C=    0.0000
 XYZ=   -1.3870   -5.1895    3.8225 Q=   -0.8200 A=    0.0000 R=    0.0000 C=    0.0000
 XYZ=   -1.7910   -5.8222    3.1618 Q=    0.4100 A=    0.0000 R=    0.0000 C=    0.0000
 XYZ=   -0.7129   -5.6747    4.3793 Q=    0.4100 A=    0.0000 R=    0.0000 C=    0.0000
 XYZ=    6.5531   -4.4072   -0.1695 Q=   -0.8200 A=    0.0000 R=    0.0000 C=    0.0000
 XYZ=    7.5385   -4.4224   -0.3397 Q=    0.4100 A=    0.0000 R=    0.0000 C=    0.0000
 XYZ=    6.0765   -4.8451   -0.9318 Q=    0.4100 A=    0.0000 R=    0.0000 C=    0.0000
 XYZ=   -1.3290   -7.1291    0.2285 Q=   -0.8200 A=    0.0000 R=    0.0000 C=    0.0000
 XYZ=   -0.3750   -6.8717    0.3827 Q=    0.4100 A=    0.0000 R=    0.0000 C=    0.0000
 XYZ=   -1.3641   -7.9728   -0.3071 Q=    0.4100 A=    0.0000 R=    0.0000 C=    0.0000
 XYZ=    7.2074   -1.5222   -3.7067 Q=   -0.8200 A=    0.0000 R=    0.0000 C=    0.0000
 XYZ=    7.9783   -1.2041   -3.1547 Q=    0.4100 A=    0.0000 R=    0.0000 C=    0.0000
 XYZ=    6.6916   -2.2089   -3.1945 Q=    0.4100 A=    0.0000 R=    0.0000 C=    0.0000
 XYZ=    5.5074   -3.3529    3.4028 Q=   -0.8200 A=    0.0000 R=    0.0000 C=    0.0000
 XYZ=    5.0854   -2.9341    4.2069 Q=    0.4100 A=    0.0000 R=    0.0000 C=    0.0000
 XYZ=    4.9659   -4.1431    3.1158 Q=    0.4100 A=    0.0000 R=    0.0000 C=    0.0000
 XYZ=    4.2874    4.4057   -2.3069 Q=   -0.8200 A=    0.0000 R=    0.0000 C=    0.0000
 XYZ=    5.2169    4.4679   -1.9431 Q=    0.4100 A=    0.0000 R=    0.0000 C=    0.0000
 XYZ=    4.2729    4.7510   -3.2453 Q=    0.4100 A=    0.0000 R=    0.0000 C=    0.0000
 XYZ=    3.2664   -1.6777   -7.2563 Q=   -0.8200 A=    0.0000 R=    0.0000 C=    0.0000
 XYZ=    3.4496   -2.4582   -6.6586 Q=    0.4100 A=    0.0000 R=    0.0000 C=    0.0000
 XYZ=    2.5714   -1.0931   -6.8376 Q=    0.4100 A=    0.0000 R=    0.0000 C=    0.0000
 XYZ=    7.1437   -0.6778   -0.8542 Q=   -0.8200 A=    0.0000 R=    0.0000 C=    0.0000
 XYZ=    7.1456    0.3221   -0.8649 Q=    0.4100 A=    0.0000 R=    0.0000 C=    0.0000
 XYZ=    7.5699   -1.0029   -0.0100 Q=    0.4100 A=    0.0000 R=    0.0000 C=    0.0000
 XYZ=    3.6334    0.9145    5.0382 Q=   -0.8200 A=    0.0000 R=    0.0000 C=    0.0000
 XYZ=    3.7673    0.2984    5.8145 Q=    0.4100 A=    0.0000 R=    0.0000 C=    0.0000
 XYZ=    3.0280    1.6635    5.3078 Q=    0.4100 A=    0.0000 R=    0.0000 C=    0.0000
 XYZ=   -2.8295    5.4289   -5.1585 Q=   -0.8200 A=    0.0000 R=    0.0000 C=    0.0000
 XYZ=   -1.9747    5.2937   -4.6576 Q=    0.4100 A=    0.0000 R=    0.0000 C=    0.0000
 XYZ=   -3.4248    6.0444   -4.6420 Q=    0.4100 A=    0.0000 R=    0.0000 C=    0.0000
 XYZ=    5.7625    0.1612   -4.6829 Q=   -0.8200 A=    0.0000 R=    0.0000 C=    0.0000
 XYZ=    6.1421    1.0851   -4.7314 Q=    0.4100 A=    0.0000 R=    0.0000 C=    0.0000
 XYZ=    6.4153   -0.4439   -4.2272 Q=    0.4100 A=    0.0000 R=    0.0000 C=    0.0000
 XYZ=   -5.4310    1.7647   -4.9417 Q=   -0.8200 A=    0.0000 R=    0.0000 C=    0.0000
 XYZ=   -5.2252    1.1287   -4.1979 Q=    0.4100 A=    0.0000 R=    0.0000 C=    0.0000
 XYZ=   -4.6258    2.3262   -5.1325 Q=    0.4100 A=    0.0000 R=    0.0000 C=    0.0000
 XYZ=    4.9561   -7.0045   -0.2619 Q=   -0.8200 A=    0.0000 R=    0.0000 C=    0.0000
 XYZ=    5.8346   -7.3447    0.0737 Q=    0.4100 A=    0.0000 R=    0.0000 C=    0.0000
 XYZ=    5.1137   -6.3199   -0.9737 Q=    0.4100 A=    0.0000 R=    0.0000 C=    0.0000
 XYZ=   -2.5442    7.4462    1.7740 Q=   -0.8200 A=    0.0000 R=    0.0000 C=    0.0000
 XYZ=   -2.9347    8.0447    2.4735 Q=    0.4100 A=    0.0000 R=    0.0000 C=    0.0000
 XYZ=   -3.1483    6.6622    1.6311 Q=    0.4100 A=    0.0000 R=    0.0000 C=    0.0000
 XYZ=   -5.5774    4.8753   -3.3447 Q=   -0.8200 A=    0.0000 R=    0.0000 C=    0.0000
 XYZ=   -5.6296    4.5454   -2.4021 Q=    0.4100 A=    0.0000 R=    0.0000 C=    0.0000
 XYZ=   -6.0464    4.2316   -3.9495 Q=    0.4100 A=    0.0000 R=    0.0000 C=    0.0000
 XYZ=    0.8829    8.1013    0.0238 Q=   -0.8200 A=    0.0000 R=    0.0000 C=    0.0000
 XYZ=    0.5334    8.0202    0.9573 Q=    0.4100 A=    0.0000 R=    0.0000 C=    0.0000
 XYZ=    0.7056    7.2519   -0.4734 Q=    0.4100 A=    0.0000 R=    0.0000 C=    0.0000
 XYZ=    2.1828   -6.0809    3.9356 Q=   -0.8200 A=    0.0000 R=    0.0000 C=    0.0000
 XYZ=    1.4516   -6.0638    4.6176 Q=    0.4100 A=    0.0000 R=    0.0000 C=    0.0000
 XYZ=    2.5786   -6.9984    3.8943 Q=    0.4100 A=    0.0000 R=    0.0000 C=    0.0000
 XYZ=    0.5951    1.1396    6.8868 Q=   -0.8200 A=    0.0000 R=    0.0000 C=    0.0000
 XYZ=    1.1224    0.3656    7.2373 Q=    0.4100 A=    0.0000 R=    0.0000 C=    0.0000
 XYZ=    1.2200    1.8616    6.5899 Q=    0.4100 A=    0.0000 R=    0.0000 C=    0.0000
 XYZ=    1.1828    3.9554   -7.0123 Q=   -0.8200 A=    0.0000 R=    0.0000 C=    0.0000
 XYZ=    1.8005    4.3153   -6.3130 Q=    0.4100 A=    0.0000 R=    0.0000 C=    0.0000
 XYZ=    1.4083    2.9985   -7.1955 Q=    0.4100 A=    0.0000 R=    0.0000 C=    0.0000
 XYZ=   -3.6449    3.2669   -5.4947 Q=   -0.8200 A=    0.0000 R=    0.0000 C=    0.0000
 XYZ=   -3.3407    4.2111   -5.3683 Q=    0.4100 A=    0.0000 R=    0.0000 C=    0.0000
 XYZ=   -3.9212    3.1303   -6.4461 Q=    0.4100 A=    0.0000 R=    0.0000 C=    0.0000
 XYZ=   -3.7447   -2.6961    5.4540 Q=   -0.8200 A=    0.0000 R=    0.0000 C=    0.0000
 XYZ=   -4.2217   -2.5461    6.3200 Q=    0.4100 A=    0.0000 R=    0.0000 C=    0.0000
 XYZ=   -3.6955   -3.6771    5.2661 Q=    0.4100 A=    0.0000 R=    0.0000 C=    0.0000
 XYZ=   -2.3831   -6.8671    2.2184 Q=   -0.8200 A=    0.0000 R=    0.0000 C=    0.0000
 XYZ=   -1.8963   -6.8651    1.3449 Q=    0.4100 A=    0.0000 R=    0.0000 C=    0.0000
 XYZ=   -3.3631   -6.7554    2.0541 Q=    0.4100 A=    0.0000 R=    0.0000 C=    0.0000
 XYZ=    0.4680    6.1278    3.7220 Q=   -0.8200 A=    0.0000 R=    0.0000 C=    0.0000
 XYZ=   -0.0631    6.7089    3.1053 Q=    0.4100 A=    0.0000 R=    0.0000 C=    0.0000
 XYZ=    1.3450    5.9043    3.2966 Q=    0.4100 A=    0.0000 R=    0.0000 C=    0.0000
 XYZ=    5.3074    3.4749    2.7407 Q=   -0.8200 A=    0.0000 R=    0.0000 C=    0.0000
 XYZ=    4.6701    4.1011    3.1899 Q=    0.4100 A=    0.0000 R=    0.0000 C=    0.0000
 XYZ=    4.7966    2.8337    2.1680 Q=    0.4100 A=    0.0000 R=    0.0000 C=    0.0000
 XYZ=    1.9074    1.7570   -7.6833 Q=   -0.8200 A=    0.0000 R=    0.0000 C=    0.0000
 XYZ=    2.8917    1.9142   -7.6035 Q=    0.4100 A=    0.0000 R=    0.0000 C=    0.0000
 XYZ=    1.6776    1.5598   -8.6364 Q=    0.4100 A=    0.0000 R=    0.0000 C=    0.0000
 XYZ=    2.2129    5.2189   -5.3385 Q=   -0.8200 A=    0.0000 R=    0.0000 C=    0.0000
 XYZ=    3.1574    5.2569   -5.0122 Q=    0.4100 A=    0.0000 R=    0.0000 C=    0.0000
 XYZ=    1.9684    6.0948   -5.7544 Q=    0.4100 A=    0.0000 R=    0.0000 C=    0.0000
 XYZ=   -4.2366    6.6415   -3.7379 Q=   -0.8200 A=    0.0000 R=    0.0000 C=    0.0000
 XYZ=   -3.6730    6.6309   -2.9119 Q=    0.4100 A=    0.0000 R=    0.0000 C=    0.0000
 XYZ=   -4.9547    5.9499   -3.6603 Q=    0.4100 A=    0.0000 R=    0.0000 C=    0.0000
 XYZ=   -0.2713    7.8346    2.0942 Q=   -0.8200 A=    0.0000 R=    0.0000 C=    0.0000
 XYZ=   -0.4087    8.4844    2.8418 Q=    0.4100 A=    0.0000 R=    0.0000 C=    0.0000
 XYZ=   -1.1587    7.5053    1.7715 Q=    0.4100 A=    0.0000 R=    0.0000 C=    0.0000
 XYZ=    7.2880   -4.0804    2.0200 Q=   -0.8200 A=    0.0000 R=    0.0000 C=    0.0000
 XYZ=    6.5753   -3.8167    2.6701 Q=    0.4100 A=    0.0000 R=    0.0000 C=    0.0000
 XYZ=    6.8999   -4.1232    1.0993 Q=    0.4100 A=    0.0000 R=    0.0000 C=    0.0000
 XYZ=    5.3213   -0.2782   -6.8823 Q=   -0.8200 A=    0.0000 R=    0.0000 C=    0.0000
 XYZ=    5.4264   -0.1379   -5.8978 Q=    0.4100 A=    0.0000 R=    0.0000 C=    0.0000
 XYZ=    4.4746   -0.7800   -7.0589 Q=    0.4100 A=    0.0000 R=    0.0000 C=    0.0000
 XYZ=   -3.2686   -4.9101    5.1205 Q=   -0.8200 A=    0.0000 R=    0.0000 C=    0.0000
 XYZ=   -2.4487   -4.9716    4.5512 Q=    0.4100 A=    0.0000 R=    0.0000 C=    0.0000
 XYZ=   -3.1307   -5.4339    5.9611 Q=    0.4100 A=    0.0000 R=    0.0000 C=    0.0000
 XYZ=    2.2778   -5.1968   -7.3463 Q=   -0.8200 A=    0.0000 R=    0.0000 C=    0.0000
 XYZ=    2.9498   -5.3412   -8.0726 Q=    0.4100 A=    0.0000 R=    0.0000 C=    0.0000
 XYZ=    2.6180   -4.5038   -6.7105 Q=    0.4100 A=    0.0000 R=    0.0000 C=    0.0000
 XYZ=   -6.2857    4.1945    1.8551 Q=   -0.8200 A=    0.0000 R=    0.0000 C=    0.0000
 XYZ=   -6.7749    4.6795    1.1301 Q=    0.4100 A=    0.0000 R=    0.0000 C=    0.0000
 XYZ=   -6.5652    4.5556    2.7448 Q=    0.4100 A=    0.0000 R=    0.0000 C=    0.0000
 XYZ=    2.3641    2.5181    6.2629 Q=   -0.8200 A=    0.0000 R=    0.0000 C=    0.0000
 XYZ=    3.0975    2.3607    6.9241 Q=    0.4100 A=    0.0000 R=    0.0000 C=    0.0000
 XYZ=    2.4680    3.4274    5.8601 Q=    0.4100 A=    0.0000 R=    0.0000 C=    0.0000
 XYZ=   -0.0288   -4.1541    6.6654 Q=   -0.8200 A=    0.0000 R=    0.0000 C=    0.0000
 XYZ=    0.7767   -3.5780    6.5268 Q=    0.4100 A=    0.0000 R=    0.0000 C=    0.0000
 XYZ=   -0.8559   -3.6061    6.5411 Q=    0.4100 A=    0.0000 R=    0.0000 C=    0.0000
 XYZ=   -7.5661    2.1701    1.3989 Q=   -0.8200 A=    0.0000 R=    0.0000 C=    0.0000
 XYZ=   -6.9942    2.9439    1.6714 Q=    0.4100 A=    0.0000 R=    0.0000 C=    0.0000
 XYZ=   -7.6228    2.1326    0.4012 Q=    0.4100 A=    0.0000 R=    0.0000 C=    0.0000
 XYZ=   -7.4824    1.9715   -1.1050 Q=   -0.8200 A=    0.0000 R=    0.0000 C=    0.0000
 XYZ=   -7.8211    1.0357   -1.0059 Q=    0.4100 A=    0.0000 R=    0.0000 C=    0.0000
 XYZ=   -7.9171    2.4011   -1.8965 Q=    0.4100 A=    0.0000 R=    0.0000 C=    0.0000
 XYZ=    5.9921    1.6804    4.2908 Q=   -0.8200 A=    0.0000 R=    0.0000 C=    0.0000
 XYZ=    5.8126    2.4797    3.7172 Q=    0.4100 A=    0.0000 R=    0.0000 C=    0.0000
 XYZ=    5.1246    1.2876    4.5959 Q=    0.4100 A=    0.0000 R=    0.0000 C=    0.0000
 XYZ=    3.9684    5.2332    3.7266 Q=   -0.8200 A=    0.0000 R=    0.0000 C=    0.0000
 XYZ=    3.5289    5.0601    4.6080 Q=    0.4100 A=    0.0000 R=    0.0000 C=    0.0000
 XYZ=    3.2680    5.3590    3.0240 Q=    0.4100 A=    0.0000 R=    0.0000 C=    0.0000
 XYZ=    8.9076   -0.9938   -2.2257 Q=   -0.8200 A=    0.0000 R=    0.0000 C=    0.0000
 XYZ=    8.1441   -0.8875   -1.5886 Q=    0.4100 A=    0.0000 R=    0.0000 C=    0.0000
 XYZ=    9.7439   -1.1903   -1.7138 Q=    0.4100 A=    0.0000 R=    0.0000 C=    0.0000
 XYZ=   -2.7765    8.3496   -0.3891 Q=   -0.8200 A=    0.0000 R=    0.0000 C=    0.0000
 XYZ=   -2.1856    9.1436   -0.5325 Q=    0.4100 A=    0.0000 R=    0.0000 C=    0.0000
 XYZ=   -2.6570    8.0094    0.5436 Q=    0.4100 A=    0.0000 R=    0.0000 C=    0.0000
 XYZ=   -7.7587   -2.0271    1.2987 Q=   -0.8200 A=    0.0000 R=    0.0000 C=    0.0000
 XYZ=   -6.9740   -1.8097    1.8793 Q=    0.4100 A=    0.0000 R=    0.0000 C=    0.0000
 XYZ=   -7.8791   -3.0191    1.2589 Q=    0.4100 A=    0.0000 R=    0.0000 C=    0.0000
 XYZ=    0.3253   -6.2072    5.3694 Q=   -0.8200 A=    0.0000 R=    0.0000 C=    0.0000
 XYZ=   -0.3835   -6.8611    5.6341 Q=    0.4100 A=    0.0000 R=    0.0000 C=    0.0000
 XYZ=    0.2691   -5.3992    5.9560 Q=    0.4100 A=    0.0000 R=    0.0000 C=    0.0000
 XYZ=    7.9397    0.6424    2.4456 Q=   -0.8200 A=    0.0000 R=    0.0000 C=    0.0000
 XYZ=    7.9818    0.5680    3.4419 Q=    0.4100 A=    0.0000 R=    0.0000 C=    0.0000
 XYZ=    6.9851    0.7158    2.1569 Q=    0.4100 A=    0.0000 R=    0.0000 C=    0.0000
 XYZ=   -0.2549    2.9164    8.1384 Q=   -0.8200 A=    0.0000 R=    0.0000 C=    0.0000
 XYZ=    0.0921    2.0924    7.6903 Q=    0.4100 A=    0.0000 R=    0.0000 C=    0.0000
 XYZ=   -1.1014    2.6999    8.6248 Q=    0.4100 A=    0.0000 R=    0.0000 C=    0.0000
 XYZ=    4.4766    5.2147   -4.5104 Q=   -0.8200 A=    0.0000 R=    0.0000 C=    0.0000
 XYZ=    5.2097    5.8940   -4.4765 Q=    0.4100 A=    0.0000 R=    0.0000 C=    0.0000
 XYZ=    4.7228    4.4905   -5.1546 Q=    0.4100 A=    0.0000 R=    0.0000 C=    0.0000
 XYZ=    4.1859    2.0839   -7.3465 Q=   -0.8200 A=    0.0000 R=    0.0000 C=    0.0000
 XYZ=    4.5794    2.7598   -6.7233 Q=    0.4100 A=    0.0000 R=    0.0000 C=    0.0000
 XYZ=    4.7699    1.2725   -7.3700 Q=    0.4100 A=    0.0000 R=    0.0000 C=    0.0000
 XYZ=    3.1138    7.0342    0.1535 Q=   -0.8200 A=    0.0000 R=    0.0000 C=    0.0000
 XYZ=    2.4195    7.7141   -0.0828 Q=    0.4100 A=    0.0000 R=    0.0000 C=    0.0000
 XYZ=    3.9538    7.4990    0.4334 Q=    0.4100 A=    0.0000 R=    0.0000 C=    0.0000
 XYZ=   -0.8869    8.9003   -2.8826 Q=   -0.8200 A=    0.0000 R=    0.0000 C=    0.0000
 XYZ=   -1.5778    9.2576   -3.5111 Q=    0.4100 A=    0.0000 R=    0.0000 C=    0.0000
 XYZ=   -0.7814    7.9165   -3.0276 Q=    0.4100 A=    0.0000 R=    0.0000 C=    0.0000
 XYZ=   -2.5003   -1.3921    8.3983 Q=   -0.8200 A=    0.0000 R=    0.0000 C=    0.0000
 XYZ=   -2.0302   -1.7874    7.6092 Q=    0.4100 A=    0.0000 R=    0.0000 C=    0.0000
 XYZ=   -2.1286   -1.7854    9.2392 Q=    0.4100 A=    0.0000 R=    0.0000 C=    0.0000
 XYZ=    4.2507   -0.5298    6.7567 Q=   -0.8200 A=    0.0000 R=    0.0000 C=    0.0000
 XYZ=    4.8964   -0.3108    7.4882 Q=    0.4100 A=    0.0000 R=    0.0000 C=    0.0000
 XYZ=    4.4786   -1.4221    6.3670 Q=    0.4100 A=    0.0000 R=    0.0000 C=    0.0000
 XYZ=   -6.9757    3.4825   -4.5650 Q=   -0.8200 A=    0.0000 R=    0.0000 C=    0.0000
 XYZ=   -7.2067    3.7621   -5.4969 Q=    0.4100 A=    0.0000 R=    0.0000 C=    0.0000
 XYZ=   -6.3450    2.7071   -4.5964 Q=    0.4100 A=    0.0000 R=    0.0000 C=    0.0000
 XYZ=    1.9114   -0.7029    7.5464 Q=   -0.8200 A=    0.0000 R=    0.0000 C=    0.0000
 XYZ=    2.0140   -0.6173    8.5375 Q=    0.4100 A=    0.0000 R=    0.0000 C=    0.0000
 XYZ=    2.8139   -0.6914    7.1158 Q=    0.4100 A=    0.0000 R=    0.0000 C=    0.0000
 XYZ=    0.6711    6.3888    5.9131 Q=   -0.8200 A=    0.0000 R=    0.0000 C=    0.0000
 XYZ=    0.5643    6.2493    4.9286 Q=    0.4100 A=    0.0000 R=    0.0000 C=    0.0000
 XYZ=   -0.0923    5.9590    6.3953 Q=    0.4100 A=    0.0000 R=    0.0000 C=    0.0000
 XYZ=    7.7209   -3.0555   -5.5867 Q=   -0.8200 A=    0.0000 R=    0.0000 C=    0.0000
 XYZ=    7.4976   -2.2462   -5.0433 Q=    0.4100 A=    0.0000 R=    0.0000 C=    0.0000
 XYZ=    8.2008   -2.7764   -6.4185 Q=    0.4100 A=    0.0000 R=    0.0000 C=    0.0000
 XYZ=    7.2291   -5.7286   -3.1749 Q=   -0.8200 A=    0.0000 R=    0.0000 C=    0.0000
 XYZ=    7.1476   -5.4750   -4.1388 Q=    0.4100 A=    0.0000 R=    0.0000 C=    0.0000
 XYZ=    7.9217   -6.4431   -3.0757 Q=    0.4100 A=    0.0000 R=    0.0000 C=    0.0000
 XYZ=   -0.3913    4.4803   -8.5629 Q=   -0.8200 A=    0.0000 R=    0.0000 C=    0.0000
 XYZ=   -1.1763    4.8581   -8.0718 Q=    0.4100 A=    0.0000 R=    0.0000 C=    0.0000
 XYZ=    0.3586    4.3216   -7.9206 Q=    0.4100 A=    0.0000 R=    0.0000 C=    0.0000
 XYZ=   -7.0909    5.4373    0.0988 Q=   -0.8200 A=    0.0000 R=    0.0000 C=    0.0000
 XYZ=   -7.0047    6.4206    0.2593 Q=    0.4100 A=    0.0000 R=    0.0000 C=    0.0000
 XYZ=   -7.7198    5.2777   -0.6621 Q=    0.4100 A=    0.0000 R=    0.0000 C=    0.0000
 XYZ=   -7.8376    1.3383    5.1367 Q=   -0.8200 A=    0.0000 R=    0.0000 C=    0.0000
 XYZ=   -7.0148    0.9342    4.7370 Q=    0.4100 A=    0.0000 R=    0.0000 C=    0.0000
 XYZ=   -8.4032    0.6165    5.5358 Q=    0.4100 A=    0.0000 R=    0.0000 C=    0.0000
 XYZ=    6.8144   -6.3514    2.5263 Q=   -0.8200 A=    0.0000 R=    0.0000 C=    0.0000
 XYZ=    7.0943   -5.4154    2.3130 Q=    0.4100 A=    0.0000 R=    0.0000 C=    0.0000
 XYZ=    5.8236   -6.3809    2.6591 Q=    0.4100 A=    0.0000 R=    0.0000 C=    0.0000
 XYZ=    5.6148    3.5035   -5.9866 Q=   -0.8200 A=    0.0000 R=    0.0000 C=    0.0000
 XYZ=    6.0352    4.1767   -6.5949 Q=    0.4100 A=    0.0000 R=    0.0000 C=    0.0000
 XYZ=    6.3274    3.0366   -5.4630 Q=    0.4100 A=    0.0000 R=    0.0000 C=    0.0000
 XYZ=   -6.7190   -1.4181    6.3587 Q=   -0.8200 A=    0.0000 R=    0.0000 C=    0.0000
 XYZ=   -6.3954   -0.8351    5.6134 Q=    0.4100 A=    0.0000 R=    0.0000 C=    0.0000
 XYZ=   -5.9464   -1.6779    6.9381 Q=    0.4100 A=    0.0000 R=    0.0000 C=    0.0000
 XYZ=    7.0155    2.4159   -4.4674 Q=   -0.8200 A=    0.0000 R=    0.0000 C=    0.0000
 XYZ=    7.3177    3.3559   -4.3085 Q=    0.4100 A=    0.0000 R=    0.0000 C=    0.0000
 XYZ=    7.6960    1.7807   -4.1021 Q=    0.4100 A=    0.0000 R=    0.0000 C=    0.0000
 XYZ=    2.8302    4.9331    5.7737 Q=   -0.8200 A=    0.0000 R=    0.0000 C=    0.0000
 XYZ=    3.5608    5.1591    6.4180 Q=    0.4100 A=    0.0000 R=    0.0000 C=    0.0000
 XYZ=    2.0616    5.5585    5.9086 Q=    0.4100 A=    0.0000 R=    0.0000 C=    0.0000
 XYZ=    8.1096    3.5285   -0.9646 Q=   -0.8200 A=    0.0000 R=    0.0000 C=    0.0000
 XYZ=    7.4023    2.8315   -0.8465 Q=    0.4100 A=    0.0000 R=    0.0000 C=    0.0000
 XYZ=    8.4916    3.7701   -0.0725 Q=    0.4100 A=    0.0000 R=    0.0000 C=    0.0000
 XYZ=   -0.7519    5.1842    7.6940 Q=   -0.8200 A=    0.0000 R=    0.0000 C=    0.0000
 XYZ=   -0.3571    5.4296    8.5794 Q=    0.4100 A=    0.0000 R=    0.0000 C=    0.0000
 XYZ=   -0.5920    4.2134    7.5153 Q=    0.4100 A=    0.0000 R=    0.0000 C=    0.0000
 XYZ=    3.1120   -1.8228   -9.4822 Q=   -0.8200 A=    0.0000 R=    0.0000 C=    0.0000
 XYZ=    3.1272   -1.6305   -8.5010 Q=    0.4100 A=    0.0000 R=    0.0000 C=    0.0000
 XYZ=    3.8784   -2.4210   -9.7165 Q=    0.4100 A=    0.0000 R=    0.0000 C=    0.0000
 XYZ=    5.5369   -4.5030   -6.8183 Q=   -0.8200 A=    0.0000 R=    0.0000 C=    0.0000
 XYZ=    6.3204   -4.8739   -6.3197 Q=    0.4100 A=    0.0000 R=    0.0000 C=    0.0000
 XYZ=    5.3352   -5.0872   -7.6045 Q=    0.4100 A=    0.0000 R=    0.0000 C=    0.0000
 XYZ=   -0.5988    9.7036   -0.7118 Q=   -0.8200 A=    0.0000 R=    0.0000 C=    0.0000
 XYZ=   -0.6885    9.6137   -1.7037 Q=    0.4100 A=    0.0000 R=    0.0000 C=    0.0000
 XYZ=    0.0494    9.0219   -0.3726 Q=    0.4100 A=    0.0000 R=    0.0000 C=    0.0000
 XYZ=   -2.2624    5.2950   -7.5153 Q=   -0.8200 A=    0.0000 R=    0.0000 C=    0.0000
 XYZ=   -2.5147    5.4965   -6.5689 Q=    0.4100 A=    0.0000 R=    0.0000 C=    0.0000
 XYZ=   -3.0729    5.3603   -8.0974 Q=    0.4100 A=    0.0000 R=    0.0000 C=    0.0000
 XYZ=   -0.4378   -0.3366   -9.5167 Q=   -0.8200 A=    0.0000 R=    0.0000 C=    0.0000
 XYZ=    0.2226   -1.0795   -9.4069 Q=    0.4100 A=    0.0000 R=    0.0000 C=    0.0000
 XYZ=   -1.3042   -0.5951   -9.0892 Q=    0.4100 A=    0.0000 R=    0.0000 C=    0.0000
 XYZ=    8.7347   -1.2021    0.9990 Q=   -0.8200 A=    0.0000 R=    0.0000 C=    0.0000
 XYZ=    8.7477   -2.0680    1.4990 Q=    0.4100 A=    0.0000 R=    0.0000 C=    0.0000
 XYZ=    8.6358   -0.4455    1.6454 Q=    0.4100 A=    0.0000 R=    0.0000 C=    0.0000
 XYZ=    6.4929    4.8063   -1.8608 Q=   -0.8200 A=    0.0000 R=    0.0000 C=    0.0000
 XYZ=    7.2386    4.1711   -1.6595 Q=    0.4100 A=    0.0000 R=    0.0000 C=    0.0000
 XYZ=    6.6474    5.6664   -1.3747 Q=    0.4100 A=    0.0000 R=    0.0000 C=    0.0000
 XYZ=   -8.3574   -0.8288   -0.7731 Q=   -0.8200 A=    0.0000 R=    0.0000 C=    0.0000
 XYZ=   -8.3058   -1.7002   -1.2609 Q=    0.4100 A=    0.0000 R=    0.0000 C=    0.0000
 XYZ=   -8.0352   -0.9527    0.1655 Q=    0.4100 A=    0.0000 R=    0.0000 C=    0.0000
 XYZ=    0.1911   -6.0902   -7.7007 Q=   -0.8200 A=    0.0000 R=    0.0000 C=    0.0000
 XYZ=    0.1397   -7.0685   -7.4995 Q=    0.4100 A=    0.0000 R=    0.0000 C=    0.0000
 XYZ=    1.1193   -5.7621   -7.5250 Q=    0.4100 A=    0.0000 R=    0.0000 C=    0.0000
 XYZ=   -5.3634   -5.5953    4.0946 Q=   -0.8200 A=    0.0000 R=    0.0000 C=    0.0000
 XYZ=   -4.4913   -5.2762    4.4657 Q=    0.4100 A=    0.0000 R=    0.0000 C=    0.0000
 XYZ=   -5.1948   -6.1638    3.2893 Q=    0.4100 A=    0.0000 R=    0.0000 C=    0.0000
 XYZ=    2.2399   -7.4494   -6.3761 Q=   -0.8200 A=    0.0000 R=    0.0000 C=    0.0000
 XYZ=    3.1822   -7.7842   -6.3700 Q=    0.4100 A=    0.0000 R=    0.0000 C=    0.0000
 XYZ=    2.1890   -6.6073   -6.9130 Q=    0.4100 A=    0.0000 R=    0.0000 C=    0.0000
 XYZ=   -6.4676    2.1994   -6.9539 Q=   -0.8200 A=    0.0000 R=    0.0000 C=    0.0000
 XYZ=   -6.8744    1.4011   -7.3981 Q=    0.4100 A=    0.0000 R=    0.0000 C=    0.0000
 XYZ=   -5.9171    1.9022   -6.1738 Q=    0.4100 A=    0.0000 R=    0.0000 C=    0.0000
 XYZ=   -8.7783    0.9282    3.0263 Q=   -0.8200 A=    0.0000 R=    0.0000 C=    0.0000
 XYZ=   -8.2278    1.3797    2.3241 Q=    0.4100 A=    0.0000 R=    0.0000 C=    0.0000
 XYZ=   -8.4043    1.1388    3.9296 Q=    0.4100 A=    0.0000 R=    0.0000 C=    0.0000
 XYZ=   -4.9828    8.8707   -1.1571 Q=   -0.8200 A=    0.0000 R=    0.0000 C=    0.0000
 XYZ=   -5.3610    9.5749   -0.5563 Q=    0.4100 A=    0.0000 R=    0.0000 C=    0.0000
 XYZ=   -4.0544    8.6443   -0.8622 Q=    0.4100 A=    0.0000 R=    0.0000 C=    0.0000
 XYZ=   -2.0530   -8.8413    3.6396 Q=   -0.8200 A=    0.0000 R=    0.0000 C=    0.0000
 XYZ=   -1.3628   -9.4880    3.3148 Q=    0.4100 A=    0.0000 R=    0.0000 C=    0.0000
 XYZ=   -2.1807   -8.1202    2.9587 Q=    0.4100 A=    0.0000 R=    0.0000 C=    0.0000
 XYZ=    6.1918   -2.2591   -8.1224 Q=   -0.8200 A=    0.0000 R=    0.0000 C=    0.0000
 XYZ=    5.7849   -1.4967   -7.6191 Q=    0.4100 A=    0.0000 R=    0.0000 C=    0.0000
 XYZ=    6.1031   -3.0981   -7.5854 Q=    0.4100 A=    0.0000 R=    0.0000 C=    0.0000
 XYZ=   -6.7591   -3.8231    3.5071 Q=   -0.8200 A=    0.0000 R=    0.0000 C=    0.0000
 XYZ=   -7.2659   -3.5368    4.3202 Q=    0.4100 A=    0.0000 R=    0.0000 C=    0.0000
 XYZ=   -6.1668   -4.5950    3.7382 Q=    0.4100 A=    0.0000 R=    0.0000 C=    0.0000
 XYZ=    8.7426    1.2161   -3.5645 Q=   -0.8200 A=    0.0000 R=    0.0000 C=    0.0000
 XYZ=    9.3650    1.8918   -3.1695 Q=    0.4100 A=    0.0000 R=    0.0000 C=    0.0000
 XYZ=    8.8044    0.3631   -3.0463 Q=    0.4100 A=    0.0000 R=    0.0000 C=    0.0000
 XYZ=   -2.4004   -1.9583   -8.7916 Q=   -0.8200 A=    0.0000 R=    0.0000 C=    0.0000
 XYZ=   -2.1736   -2.5273   -9.5820 Q=    0.4100 A=    0.0000 R=    0.0000 C=    0.0000
 XYZ=   -3.0366   -2.4509   -8.1978 Q=    0.4100 A=    0.0000 R=    0.0000 C=    0.0000
 XYZ=   -8.4503    2.9631   -2.9789 Q=   -0.8200 A=    0.0000 R=    0.0000 C=    0.0000
 XYZ=   -7.8123    3.2216   -3.7044 Q=    0.4100 A=    0.0000 R=    0.0000 C=    0.0000
 XYZ=   -9.3843    2.9768   -3.3359 Q=    0.4100 A=    0.0000 R=    0.0000 C=    0.0000
 XYZ=    1.1941    1.2916   -9.8908 Q=   -0.8200 A=    0.0000 R=    0.0000 C=    0.0000
 XYZ=    0.8986    2.1801  -10.2422 Q=    0.4100 A=    0.0000 R=    0.0000 C=    0.0000
 XYZ=    0.3930    0.7189   -9.7168 Q=    0.4100 A=    0.0000 R=    0.0000 C=    0.0000
 XYZ=   -4.9940   -6.7447    1.9842 Q=   -0.8200 A=    0.0000 R=    0.0000 C=    0.0000
 XYZ=   -5.1214   -7.7152    1.7790 Q=    0.4100 A=    0.0000 R=    0.0000 C=    0.0000
 XYZ=   -5.4152   -6.1937    1.2638 Q=    0.4100 A=    0.0000 R=    0.0000 C=    0.0000
 XYZ=   -4.7083   -2.3200    7.6865 Q=   -0.8200 A=    0.0000 R=    0.0000 C=    0.0000
 XYZ=   -3.8538   -1.9462    8.0475 Q=    0.4100 A=    0.0000 R=    0.0000 C=    0.0000
 XYZ=   -4.9361   -3.1625    8.1746 Q=    0.4100 A=    0.0000 R=    0.0000 C=    0.0000
 XYZ=    7.3192   -5.2936   -5.6612 Q=   -0.8200 A=    0.0000 R=    0.0000 C=    0.0000
 XYZ=    7.5910   -4.3319   -5.6252 Q=    0.4100 A=    0.0000 R=    0.0000 C=    0.0000
 XYZ=    8.1357   -5.8710   -5.6587 Q=    0.4100 A=    0.0000 R=    0.0000 C=    0.0000
 XYZ=   -3.5894    0.7648    8.9579 Q=   -0.8200 A=    0.0000 R=    0.0000 C=    0.0000
 XYZ=   -3.0991   -0.0800    8.7438 Q=    0.4100 A=    0.0000 R=    0.0000 C=    0.0000
 XYZ=   -4.5731    0.5850    8.9709 Q=    0.4100 A=    0.0000 R=    0.0000 C=    0.0000
 XYZ=   -4.6898    8.8497   -3.5048 Q=   -0.8200 A=    0.0000 R=    0.0000 C=    0.0000
 XYZ=   -4.8900    8.9936   -2.5357 Q=    0.4100 A=    0.0000 R=    0.0000 C=    0.0000
 XYZ=   -4.5775    7.8716   -3.6802 Q=    0.4100 A=    0.0000 R=    0.0000 C=    0.0000
 XYZ=   -7.8256   -4.4436    1.3651 Q=   -0.8200 A=    0.0000 R=    0.0000 C=    0.0000
 XYZ=   -7.3316   -5.0586    0.7504 Q=    0.4100 A=    0.0000 R=    0.0000 C=    0.0000
 XYZ=   -7.1969   -4.0876    2.0564 Q=    0.4100 A=    0.0000 R=    0.0000 C=    0.0000
 XYZ=    7.1845   -7.4361    0.4728 Q=   -0.8200 A=    0.0000 R=    0.0000 C=    0.0000
 XYZ=    7.0742   -6.8699    1.2897 Q=    0.4100 A=    0.0000 R=    0.0000 C=    0.0000
 XYZ=    7.7566   -8.2270    0.6904 Q=    0.4100 A=    0.0000 R=    0.0000 C=    0.0000
 XYZ=   -9.1496    3.8191    1.8379 Q=   -0.8200 A=    0.0000 R=    0.0000 C=    0.0000
 XYZ=   -8.6282    3.0035    1.5868 Q=    0.4100 A=    0.0000 R=    0.0000 C=    0.0000
 XYZ=   -9.9764    3.5475    2.3306 Q=    0.4100 A=    0.0000 R=    0.0000 C=    0.0000
 XYZ=    9.4680   -3.3329    2.4064 Q=   -0.8200 A=    0.0000 R=    0.0000 C=    0.0000
 XYZ=    8.5384   -3.6944    2.3334 Q=    0.4100 A=    0.0000 R=    0.0000 C=    0.0000
 XYZ=   10.0537   -3.7806    1.7307 Q=    0.4100 A=    0.0000 R=    0.0000 C=    0.0000
 XYZ=   -6.6763    4.9865    4.2534 Q=   -0.8200 A=    0.0000 R=    0.0000 C=    0.0000
 XYZ=   -7.4397    5.3744    3.7369 Q=    0.4100 A=    0.0000 R=    0.0000 C=    0.0000
 XYZ=   -7.0307    4.4042    4.9851 Q=    0.4100 A=    0.0000 R=    0.0000 C=    0.0000
 XYZ=   -8.3506    4.9923   -1.8312 Q=   -0.8200 A=    0.0000 R=    0.0000 C=    0.0000
 XYZ=   -8.0929    5.7482   -2.4331 Q=    0.4100 A=    0.0000 R=    0.0000 C=    0.0000
 XYZ=   -8.3723    4.1411   -2.3557 Q=    0.4100 A=    0.0000 R=    0.0000 C=    0.0000
 XYZ=    9.1145   -4.6090   -0.6100 Q=   -0.8200 A=    0.0000 R=    0.0000 C=    0.0000
 XYZ=    9.5280   -4.2274   -1.4367 Q=    0.4100 A=    0.0000 R=    0.0000 C=    0.0000
 XYZ=    8.9245   -5.5807   -0.7504 Q=    0.4100 A=    0.0000 R=    0.0000 C=    0.0000
 XYZ=   -4.4570    3.0923   -7.7275 Q=   -0.8200 A=    0.0000 R=    0.0000 C=    0.0000
 XYZ=   -5.3817    2.7114   -7.7279 Q=    0.4100 A=    0.0000 R=    0.0000 C=    0.0000
 XYZ=   -4.4996    4.0710   -7.9283 Q=    0.4100 A=    0.0000 R=    0.0000 C=    0.0000
 XYZ=   -0.4077   -4.5011    8.9936 Q=   -0.8200 A=    0.0000 R=    0.0000 C=    0.0000
 XYZ=   -0.1731   -4.3978    8.0270 Q=    0.4100 A=    0.0000 R=    0.0000 C=    0.0000
 XYZ=    0.0478   -5.3114    9.3624 Q=    0.4100 A=    0.0000 R=    0.0000 C=    0.0000
 XYZ=    5.6295    6.5754    3.0317 Q=   -0.8200 A=    0.0000 R=    0.0000 C=    0.0000
 XYZ=    4.8964    5.9778    3.3567 Q=    0.4100 A=    0.0000 R=    0.0000 C=    0.0000
 XYZ=    6.4341    6.0249    2.8088 Q=    0.4100 A=    0.0000 R=    0.0000 C=    0.0000
 XYZ=    7.2503    4.8469    2.6792 Q=   -0.8200 A=    0.0000 R=    0.0000 C=    0.0000
 XYZ=    7.5710    4.7678    3.6231 Q=    0.4100 A=    0.0000 R=    0.0000 C=    0.0000
 XYZ=    6.3769    4.3695    2.5829 Q=    0.4100 A=    0.0000 R=    0.0000 C=    0.0000
 XYZ=   -6.5050   -5.9111    0.1373 Q=   -0.8200 A=    0.0000 R=    0.0000 C=    0.0000
 XYZ=   -6.1456   -5.6560   -0.7604 Q=    0.4100 A=    0.0000 R=    0.0000 C=    0.0000
 XYZ=   -6.5406   -6.9078    0.2109 Q=    0.4100 A=    0.0000 R=    0.0000 C=    0.0000
 XYZ=    7.8685    4.8631   -3.8487 Q=   -0.8200 A=    0.0000 R=    0.0000 C=    0.0000
 XYZ=    7.3071    4.8213   -3.0222 Q=    0.4100 A=    0.0000 R=    0.0000 C=    0.0000
 XYZ=    8.8312    4.7471   -3.6039 Q=    0.4100 A=    0.0000 R=    0.0000 C=    0.0000
 XYZ=   -9.3231   -1.4036    2.8258 Q=   -0.8200 A=    0.0000 R=    0.0000 C=    0.0000
 XYZ=   -8.6752   -1.6072    2.0918 Q=    0.4100 A=    0.0000 R=    0.0000 C=    0.0000
 XYZ=   -9.1883   -0.4632    3.1379 Q=    0.4100 A=    0.0000 R=    0.0000 C=    0.0000
 XYZ=   -6.8387    7.6716    0.0013 Q=   -0.8200 A=    0.0000 R=    0.0000 C=    0.0000
 XYZ=   -6.0761    8.1709   -0.4100 Q=    0.4100 A=    0.0000 R=    0.0000 C=    0.0000
 XYZ=   -7.2537    8.2298    0.7198 Q=    0.4100 A=    0.0000 R=    0.0000 C=    0.0000
 XYZ=   -2.2888   -5.9258   -7.7355 Q=   -0.8200 A=    0.0000 R=    0.0000 C=    0.0000
 XYZ=   -1.2890   -5.9277   -7.7111 Q=    0.4100 A=    0.0000 R=    0.0000 C=    0.0000
 XYZ=   -2.6428   -6.3853   -6.9209 Q=    0.4100 A=    0.0000 R=    0.0000 C=    0.0000
 XYZ=   -2.2830    2.6086    9.2890 Q=   -0.8200 A=    0.0000 R=    0.0000 C=    0.0000
 XYZ=   -2.8367    1.7903    9.1342 Q=    0.4100 A=    0.0000 R=    0.0000 C=    0.0000
 XYZ=   -2.0942    2.7032   10.2665 Q=    0.4100 A=    0.0000 R=    0.0000 C=    0.0000
 XYZ=   10.6179   -0.8597   -0.3502 Q=   -0.8200 A=    0.0000 R=    0.0000 C=    0.0000
 XYZ=   11.4133   -0.7086    0.2368 Q=    0.4100 A=    0.0000 R=    0.0000 C=    0.0000
 XYZ=    9.8347   -1.1258    0.2117 Q=    0.4100 A=    0.0000 R=    0.0000 C=    0.0000
 XYZ=    0.8445   -2.5377   -9.9628 Q=   -0.8200 A=    0.0000 R=    0.0000 C=    0.0000
 XYZ=    1.7783   -2.2633   -9.7328 Q=    0.4100 A=    0.0000 R=    0.0000 C=    0.0000
 XYZ=    0.6573   -2.3135  -10.9192 Q=    0.4100 A=    0.0000 R=    0.0000 C=    0.0000
 XYZ=   -6.1049   -5.6175   -2.2451 Q=   -0.8200 A=    0.0000 R=    0.0000 C=    0.0000
 XYZ=   -5.9450   -6.5704   -2.5030 Q=    0.4100 A=    0.0000 R=    0.0000 C=    0.0000
 XYZ=   -6.0093   -5.0335   -3.0513 Q=    0.4100 A=    0.0000 R=    0.0000 C=    0.0000
 XYZ=   -1.4140   -7.7201    5.6745 Q=   -0.8200 A=    0.0000 R=    0.0000 C=    0.0000
 XYZ=   -2.1103   -7.3252    6.2740 Q=    0.4100 A=    0.0000 R=    0.0000 C=    0.0000
 XYZ=   -1.8561   -8.1409    4.8823 Q=    0.4100 A=    0.0000 R=    0.0000 C=    0.0000
 XYZ=    8.9353   -6.8923   -0.9843 Q=   -0.8200 A=    0.0000 R=    0.0000 C=    0.0000
 XYZ=    8.0680   -7.0198   -0.5031 Q=    0.4100 A=    0.0000 R=    0.0000 C=    0.0000
 XYZ=    9.6467   -7.4358   -0.5387 Q=    0.4100 A=    0.0000 R=    0.0000 C=    0.0000
 XYZ=    4.0614    2.3270    7.8387 Q=   -0.8200 A=    0.0000 R=    0.0000 C=    0.0000
 XYZ=    4.8721    2.8244    7.5301 Q=    0.4100 A=    0.0000 R=    0.0000 C=    0.0000
 XYZ=    3.6885    2.7704    8.6538 Q=    0.4100 A=    0.0000 R=    0.0000 C=    0.0000
 XYZ=   -0.3595   -4.5949   -9.5295 Q=   -0.8200 A=    0.0000 R=    0.0000 C=    0.0000
 XYZ=    0.2217   -3.7816   -9.5601 Q=    0.4100 A=    0.0000 R=    0.0000 C=    0.0000
 XYZ=   -0.1685   -5.1097   -8.6937 Q=    0.4100 A=    0.0000 R=    0.0000 C=    0.0000
 XYZ=    7.3992    2.7660    5.7130 Q=   -0.8200 A=    0.0000 R=    0.0000 C=    0.0000
 XYZ=    6.8190    2.1318    5.2019 Q=    0.4100 A=    0.0000 R=    0.0000 C=    0.0000
 XYZ=    8.2815    2.3339    5.8999 Q=    0.4100 A=    0.0000 R=    0.0000 C=    0.0000
 XYZ=    0.5617    3.5214  -10.4318 Q=   -0.8200 A=    0.0000 R=    0.0000 C=    0.0000
 XYZ=    0.1037    3.8886   -9.6222 Q=    0.4100 A=    0.0000 R=    0.0000 C=    0.0000
 XYZ=    1.4741    3.9233  -10.5096 Q=    0.4100 A=    0.0000 R=    0.0000 C=    0.0000
 XYZ=   -2.9516    4.6234    8.4742 Q=   -0.8200 A=    0.0000 R=    0.0000 C=    0.0000
 XYZ=   -2.0634    5.0123    8.2294 Q=    0.4100 A=    0.0000 R=    0.0000 C=    0.0000
 XYZ=   -2.8244    3.6940    8.8207 Q=    0.4100 A=    0.0000 R=    0.0000 C=    0.0000
 XYZ=    6.6527    6.9410   -0.9508 Q=   -0.8200 A=    0.0000 R=    0.0000 C=    0.0000
 XYZ=    5.8009    6.9965   -1.4717 Q=    0.4100 A=    0.0000 R=    0.0000 C=    0.0000
 XYZ=    6.5327    7.3924   -0.0666 Q=    0.4100 A=    0.0000 R=    0.0000 C=    0.0000
 XYZ=   -5.8567    6.6105    5.8586 Q=   -0.8200 A=    0.0000 R=    0.0000 C=    0.0000
 XYZ=   -6.7832    6.9014    6.0974 Q=    0.4100 A=    0.0000 R=    0.0000 C=    0.0000
 XYZ=   -5.9029    5.8387    5.2243 Q=    0.4100 A=    0.0000 R=    0.0000 C=    0.0000
 XYZ=   -8.0548   -3.2383    5.4814 Q=   -0.8200 A=    0.0000 R=    0.0000 C=    0.0000
 XYZ=   -8.8634   -2.7731    5.1212 Q=    0.4100 A=    0.0000 R=    0.0000 C=    0.0000
 XYZ=   -7.3555   -2.5612    5.7112 Q=    0.4100 A=    0.0000 R=    0.0000 C=    0.0000
 XYZ=   -3.7288    0.0703  -10.1974 Q=   -0.8200 A=    0.0000 R=    0.0000 C=    0.0000
 XYZ=   -3.4459   -0.5314   -9.4504 Q=    0.4100 A=    0.0000 R=    0.0000 C=    0.0000
 XYZ=   -4.6149   -0.2303  -10.5503 Q=    0.4100 A=    0.0000 R=    0.0000 C=    0.0000
 XYZ=    0.1415   -8.3504   -7.2559 Q=   -0.8200 A=    0.0000 R=    0.0000 C=    0.0000
 XYZ=   -0.4740   -8.6970   -6.5481 Q=    0.4100 A=    0.0000 R=    0.0000 C=    0.0000
 XYZ=    1.0360   -8.1556   -6.8536 Q=    0.4100 A=    0.0000 R=    0.0000 C=    0.0000
 XYZ=    1.1386    3.8257    9.9522 Q=   -0.8200 A=    0.0000 R=    0.0000 C=    0.0000
 XYZ=    2.1211    3.6962    9.8183 Q=    0.4100 A=    0.0000 R=    0.0000 C=    0.0000
 XYZ=    0.6392    3.3761    9.2116 Q=    0.4100 A=    0.0000 R=    0.0000 C=    0.0000
 XYZ=   -0.9778    9.3690    3.8826 Q=   -0.8200 A=    0.0000 R=    0.0000 C=    0.0000
 XYZ=   -1.9567    9.3202    3.6840 Q=    0.4100 A=    0.0000 R=    0.0000 C=    0.0000
 XYZ=   -0.7967    8.9479    4.7714 Q=    0.4100 A=    0.0000 R=    0.0000 C=    0.0000
 XYZ=   -3.8573    2.5570   -9.9795 Q=   -0.8200 A=    0.0000 R=    0.0000 C=    0.0000
 XYZ=   -3.9713    2.8417   -9.0278 Q=    0.4100 A=    0.0000 R=    0.0000 C=    0.0000
 XYZ=   -3.9007    1.5595  -10.0365 Q=    0.4100 A=    0.0000 R=    0.0000 C=    0.0000
 XYZ=    9.8050    1.9742    1.6387 Q=   -0.8200 A=    0.0000 R=    0.0000 C=    0.0000
 XYZ=    9.1399    1.3677    2.0743 Q=    0.4100 A=    0.0000 R=    0.0000 C=    0.0000
 XYZ=    9.4343    2.9022    1.5999 Q=    0.4100 A=    0.0000 R=    0.0000 C=    0.0000
 XYZ=   -3.2681    9.2708    3.4124 Q=   -0.8200 A=    0.0000 R=    0.0000 C=    0.0000
 XYZ=   -3.7675    8.7197    4.0810 Q=    0.4100 A=    0.0000 R=    0.0000 C=    0.0000
 XYZ=   -3.8138   10.0719    3.1666 Q=    0.4100 A=    0.0000 R=    0.0000 C=    0.0000
 XYZ=    6.4646    6.5700   -4.9370 Q=   -0.8200 A=    0.0000 R=    0.0000 C=    0.0000
 XYZ=    6.8930    5.9229   -4.3063 Q=    0.4100 A=    0.0000 R=    0.0000 C=    0.0000
 XYZ=    6.4785    6.1920   -5.8627 Q=    0.4100 A=    0.0000 R=    0.0000 C=    0.0000
 XYZ=    2.1656   -0.2801  -11.1415 Q=   -0.8200 A=    0.0000 R=    0.0000 C=    0.0000
 XYZ=    1.8289    0.5066  -10.6242 Q=    0.4100 A=    0.0000 R=    0.0000 C=    0.0000
 XYZ=    2.6587   -0.8964  -10.5275 Q=    0.4100 A=    0.0000 R=    0.0000 C=    0.0000
 XYZ=   -7.7216    3.5576    6.1727 Q=   -0.8200 A=    0.0000 R=    0.0000 C=    0.0000
 XYZ=   -7.8242    3.5156    7.1665 Q=    0.4100 A=    0.0000 R=    0.0000 C=    0.0000
 XYZ=   -7.9681    2.6740    5.7746 Q=    0.4100 A=    0.0000 R=    0.0000 C=    0.0000
 XYZ=   -1.7405    0.3165  -11.3221 Q=   -0.8200 A=    0.0000 R=    0.0000 C=    0.0000
 XYZ=   -1.0447    0.0663  -10.6488 Q=    0.4100 A=    0.0000 R=    0.0000 C=    0.0000
 XYZ=   -2.6348    0.3599  -10.8768 Q=    0.4100 A=    0.0000 R=    0.0000 C=    0.0000
 XYZ=    9.9937    2.6981   -1.9932 Q=   -0.8200 A=    0.0000 R=    0.0000 C=    0.0000
 XYZ=    9.1681    3.0644   -1.5639 Q=    0.4100 A=    0.0000 R=    0.0000 C=    0.0000
 XYZ=   10.5502    2.2345   -1.3036 Q=    0.4100 A=    0.0000 R=    0.0000 C=    0.0000
 XYZ=   -0.6135    8.6032    6.2507 Q=   -0.8200 A=    0.0000 R=    0.0000 C=    0.0000
 XYZ=    0.0587    7.8934    6.0396 Q=    0.4100 A=    0.0000 R=    0.0000 C=    0.0000
 XYZ=   -1.5179    8.1875    6.3468 Q=    0.4100 A=    0.0000 R=    0.0000 C=    0.0000
 XYZ=    5.7417    7.9578    1.0374 Q=   -0.8200 A=    0.0000 R=    0.0000 C=    0.0000
 XYZ=    5.9820    8.8586    1.3992 Q=    0.4100 A=    0.0000 R=    0.0000 C=    0.0000
 XYZ=    5.6257    7.3147    1.7944 Q=    0.4100 A=    0.0000 R=    0.0000 C=    0.0000
 XYZ=   10.7110   -4.5274    1.0145 Q=   -0.8200 A=    0.0000 R=    0.0000 C=    0.0000
 XYZ=    9.9811   -4.5382    0.3310 Q=    0.4100 A=    0.0000 R=    0.0000 C=    0.0000
 XYZ=   11.0620   -5.4551    1.1420 Q=    0.4100 A=    0.0000 R=    0.0000 C=    0.0000
 XYZ=    5.0804   -3.2875   -9.9590 Q=   -0.8200 A=    0.0000 R=    0.0000 C=    0.0000
 XYZ=    5.6289   -3.1969  -10.7903 Q=    0.4100 A=    0.0000 R=    0.0000 C=    0.0000
 XYZ=    5.5349   -2.8112   -9.2063 Q=    0.4100 A=    0.0000 R=    0.0000 C=    0.0000
 XYZ=   -3.0629   -6.5626    6.9526 Q=   -0.8200 A=    0.0000 R=    0.0000 C=    0.0000
 XYZ=   -2.7981   -6.3096    7.8831 Q=    0.4100 A=    0.0000 R=    0.0000 C=    0.0000
 XYZ=   -3.9368   -7.0483    6.9753 Q=    0.4100 A=    0.0000 R=    0.0000 C=    0.0000
 XYZ=    4.6853   -5.4001   -8.8921 Q=   -0.8200 A=    0.0000 R=    0.0000 C=    0.0000
 XYZ=    4.9262   -6.1985   -9.4441 Q=    0.4100 A=    0.0000 R=    0.0000 C=    0.0000
 XYZ=    4.8299   -4.5684   -9.4282 Q=    0.4100 A=    0.0000 R=    0.0000 C=    0.0000
 XYZ=  -10.2150    3.8944   -0.4152 Q=   -0.8200 A=    0.0000 R=    0.0000 C=    0.0000
 XYZ=   -9.6211    4.3743   -1.0610 Q=    0.4100 A=    0.0000 R=    0.0000 C=    0.0000
 XYZ=   -9.8261    3.9559    0.5041 Q=    0.4100 A=    0.0000 R=    0.0000 C=    0.0000
 XYZ=   -4.8992    5.9404    8.0544 Q=   -0.8200 A=    0.0000 R=    0.0000 C=    0.0000
 XYZ=   -5.1939    6.1664    7.1259 Q=    0.4100 A=    0.0000 R=    0.0000 C=    0.0000
 XYZ=   -4.0571    5.4025    8.0152 Q=    0.4100 A=    0.0000 R=    0.0000 C=    0.0000
 XYZ=    8.5319   -2.1976   -7.6277 Q=   -0.8200 A=    0.0000 R=    0.0000 C=    0.0000
 XYZ=    7.6063   -2.1895   -8.0061 Q=    0.4100 A=    0.0000 R=    0.0000 C=    0.0000
 XYZ=    9.0122   -1.3652   -7.9042 Q=    0.4100 A=    0.0000 R=    0.0000 C=    0.0000
 XYZ=   -0.6180   11.5648    0.5899 Q=   -0.8200 A=    0.0000 R=    0.0000 C=    0.0000
 XYZ=    0.2737   11.9935    0.4440 Q=    0.4100 A=    0.0000 R=    0.0000 C=    0.0000
 XYZ=   -0.6857   10.7381    0.0314 Q=    0.4100 A=    0.0000 R=    0.0000 C=    0.0000
 XYZ=   -8.7186    5.6950    3.4241 Q=   -0.8200 A=    0.0000 R=    0.0000 C=    0.0000
 XYZ=   -9.3291    5.3673    4.1452 Q=    0.4100 A=    0.0000 R=    0.0000 C=    0.0000
 XYZ=   -8.8570    5.1499    2.5971 Q=    0.4100 A=    0.0000 R=    0.0000 C=    0.0000
 XYZ=   -3.3738   -7.5689   -6.1153 Q=   -0.8200 A=    0.0000 R=    0.0000 C=    0.0000
 XYZ=   -3.5925   -7.8432   -7.0518 Q=    0.4100 A=    0.0000 R=    0.0000 C=    0.0000
 XYZ=   -4.2194   -7.4736   -5.5900 Q=    0.4100 A=    0.0000 R=    0.0000 C=    0.0000
 XYZ=    5.5875    0.6630    8.6094 Q=   -0.8200 A=    0.0000 R=    0.0000 C=    0.0000
 XYZ=    5.0421    1.4070    8.2233 Q=    0.4100 A=    0.0000 R=    0.0000 C=    0.0000
 XYZ=    6.3427    1.0450    9.1421 Q=    0.4100 A=    0.0000 R=    0.0000 C=    0.0000
 XYZ=  -10.8228   -0.0933   -0.6597 Q=   -0.8200 A=    0.0000 R=    0.0000 C=    0.0000
 XYZ=  -11.0497    0.8188   -1.0011 Q=    0.4100 A=    0.0000 R=    0.0000 C=    0.0000
 XYZ=   -9.8893   -0.3280   -0.9309 Q=    0.4100 A=    0.0000 R=    0.0000 C=    0.0000
 XYZ=   -2.8061    7.8371    6.2997 Q=   -0.8200 A=    0.0000 R=    0.0000 C=    0.0000
 XYZ=   -3.5708    8.0263    5.6837 Q=    0.4100 A=    0.0000 R=    0.0000 C=    0.0000
 XYZ=   -3.1398    7.3458    7.1042 Q=    0.4100 A=    0.0000 R=    0.0000 C=    0.0000
 XYZ=   -3.0195   10.0433   -4.6165 Q=   -0.8200 A=    0.0000 R=    0.0000 C=    0.0000
 XYZ=   -2.8781   10.9129   -4.1433 Q=    0.4100 A=    0.0000 R=    0.0000 C=    0.0000
 XYZ=   -3.7508    9.5328   -4.1642 Q=    0.4100 A=    0.0000 R=    0.0000 C=    0.0000
 XYZ=   -6.7287   -4.7285   -4.4554 Q=   -0.8200 A=    0.0000 R=    0.0000 C=    0.0000
 XYZ=   -6.8108   -4.2888   -5.3498 Q=    0.4100 A=    0.0000 R=    0.0000 C=    0.0000
 XYZ=   -7.4596   -4.4028   -3.8556 Q=    0.4100 A=    0.0000 R=    0.0000 C=    0.0000
 XYZ=   -4.7117    8.2578    4.9766 Q=   -0.8200 A=    0.0000 R=    0.0000 C=    0.0000
 XYZ=   -5.2423    7.4875    5.3304 Q=    0.4100 A=    0.0000 R=    0.0000 C=    0.0000
 XYZ=   -5.2516    9.0963    5.0503 Q=    0.4100 A=    0.0000 R=    0.0000 C=    0.0000
 XYZ=   -8.8697   -0.4650    6.1411 Q=   -0.8200 A=    0.0000 R=    0.0000 C=    0.0000
 XYZ=   -9.4410   -1.1005    5.6217 Q=    0.4100 A=    0.0000 R=    0.0000 C=    0.0000
 XYZ=   -8.1060   -0.9629    6.5521 Q=    0.4100 A=    0.0000 R=    0.0000 C=    0.0000
 XYZ=   -7.4952    4.1432   -7.0288 Q=   -0.8200 A=    0.0000 R=    0.0000 C=    0.0000
 XYZ=   -7.0537    4.6553   -7.7656 Q=    0.4100 A=    0.0000 R=    0.0000 C=    0.0000
 XYZ=   -7.1681    3.1982   -7.0372 Q=    0.4100 A=    0.0000 R=    0.0000 C=    0.0000
 XYZ=   -6.6413   -6.4682    5.8663 Q=   -0.8200 A=    0.0000 R=    0.0000 C=    0.0000
 XYZ=   -6.1094   -6.0032    5.1587 Q=    0.4100 A=    0.0000 R=    0.0000 C=    0.0000
 XYZ=   -7.5285   -6.0178    5.9664 Q=    0.4100 A=    0.0000 R=    0.0000 C=    0.0000
 XYZ=   -1.7380   -9.3172   -6.1778 Q=   -0.8200 A=    0.0000 R=    0.0000 C=    0.0000
 XYZ=   -2.2934   -8.4861   -6.1488 Q=    0.4100 A=    0.0000 R=    0.0000 C=    0.0000
 XYZ=   -2.1403   -9.9645   -6.8253 Q=    0.4100 A=    0.0000 R=    0.0000 C=    0.0000
 XYZ=   -1.7509   -2.5410   10.2407 Q=   -0.8200 A=    0.0000 R=    0.0000 C=    0.0000
 XYZ=   -1.2462   -3.2496    9.7476 Q=    0.4100 A=    0.0000 R=    0.0000 C=    0.0000
 XYZ=   -2.5157   -2.9574   10.7323 Q=    0.4100 A=    0.0000 R=    0.0000 C=    0.0000
 XYZ=    8.9124    4.0958    1.2275 Q=   -0.8200 A=    0.0000 R=    0.0000 C=    0.0000
 XYZ=    8.1377    4.3593    1.8023 Q=    0.4100 A=    0.0000 R=    0.0000 C=    0.0000
 XYZ=    9.5576    4.8576    1.1679 Q=    0.4100 A=    0.0000 R=    0.0000 C=    0.0000
 XYZ=    8.4055   -7.9591    3.5128 Q=   -0.8200 A=    0.0000 R=    0.0000 C=    0.0000
 XYZ=    7.7146   -7.3051    3.2046 Q=    0.4100 A=    0.0000 R=    0.0000 C=    0.0000
 XYZ=    7.9560   -8.7338    3.9578 Q=    0.4100 A=    0.0000 R=    0.0000 C=    0.0000
 XYZ=    8.7903   -7.5661   -3.1845 Q=   -0.8200 A=    0.0000 R=    0.0000 C=    0.0000
 XYZ=    9.0492   -7.3183   -2.2509 Q=    0.4100 A=    0.0000 R=    0.0000 C=    0.0000
 XYZ=    9.4901   -8.1630   -3.5771 Q=    0.4100 A=    0.0000 R=    0.0000 C=    0.0000
 XYZ=    4.7394    5.3300    7.1186 Q=   -0.8200 A=    0.0000 R=    0.0000 C=    0.0000
 XYZ=    5.2708    6.1772    7.1226 Q=    0.4100 A=    0.0000 R=    0.0000 C=    0.0000
 XYZ=    5.3552    4.5499    7.2289 Q=    0.4100 A=    0.0000 R=    0.0000 C=    0.0000
 XYZ=   -4.8322   -9.4897    1.4239 Q=   -0.8200 A=    0.0000 R=    0.0000 C=    0.0000
 XYZ=   -5.3963   -9.0092    0.7524 Q=    0.4100 A=    0.0000 R=    0.0000 C=    0.0000
 XYZ=   -3.9345   -9.6830    1.0278 Q=    0.4100 A=    0.0000 R=    0.0000 C=    0.0000
 XYZ=    6.0054    3.4370    7.5073 Q=   -0.8200 A=    0.0000 R=    0.0000 C=    0.0000
 XYZ=    6.5254    3.1359    6.7079 Q=    0.4100 A=    0.0000 R=    0.0000 C=    0.0000
 XYZ=    6.6317    3.6040    8.2688 Q=    0.4100 A=    0.0000 R=    0.0000 C=    0.0000
 XYZ=   -1.7588    5.9226  -10.4620 Q=   -0.8200 A=    0.0000 R=    0.0000 C=    0.0000
 XYZ=   -2.3115    5.2112  -10.8962 Q=    0.4100 A=    0.0000 R=    0.0000 C=    0.0000
 XYZ=   -1.1317    5.5032   -9.8056 Q=    0.4100 A=    0.0000 R=    0.0000 C=    0.0000
 XYZ=   -7.3559    0.3415   -8.1735 Q=   -0.8200 A=    0.0000 R=    0.0000 C=    0.0000
 XYZ=   -7.8874   -0.5049   -8.1371 Q=    0.4100 A=    0.0000 R=    0.0000 C=    0.0000
 XYZ=   -6.4365    0.1433   -8.5133 Q=    0.4100 A=    0.0000 R=    0.0000 C=    0.0000
 XYZ=    3.2711   -0.3515    9.8631 Q=   -0.8200 A=    0.0000 R=    0.0000 C=    0.0000
 XYZ=    4.1550    0.0467    9.6176 Q=    0.4100 A=    0.0000 R=    0.0000 C=    0.0000
 XYZ=    3.4084   -1.0783   10.5361 Q=    0.4100 A=    0.0000 R=    0.0000 C=    0.0000
 XYZ=   11.0262    1.6032   -0.3818 Q=   -0.8200 A=    0.0000 R=    0.0000 C=    0.0000
 XYZ=   11.0992    0.6220   -0.5602 Q=    0.4100 A=    0.0000 R=    0.0000 C=    0.0000
 XYZ=   10.4028    1.7572    0.3848 Q=    0.4100 A=    0.0000 R=    0.0000 C=    0.0000
 XYZ=   -2.1908   -3.5826  -10.3300 Q=   -0.8200 A=    0.0000 R=    0.0000 C=    0.0000
 XYZ=   -1.4325   -4.1961  -10.1096 Q=    0.4100 A=    0.0000 R=    0.0000 C=    0.0000
 XYZ=   -2.0738   -3.2279  -11.2577 Q=    0.4100 A=    0.0000 R=    0.0000 C=    0.0000
 XYZ=    6.8546    5.2254   -7.1669 Q=   -0.8200 A=    0.0000 R=    0.0000 C=    0.0000
 XYZ=    7.8415    5.3864   -7.1549 Q=    0.4100 A=    0.0000 R=    0.0000 C=    0.0000
 XYZ=    6.5476    5.1073   -8.1113 Q=    0.4100 A=    0.0000 R=    0.0000 C=    0.0000
 XYZ=   -2.6759   -5.5212    9.0465 Q=   -0.8200 A=    0.0000 R=    0.0000 C=    0.0000
 XYZ=   -1.8273   -4.9944    9.0939 Q=    0.4100 A=    0.0000 R=    0.0000 C=    0.0000
 XYZ=   -3.4542   -4.8955    8.9936 Q=    0.4100 A=    0.0000 R=    0.0000 C=    0.0000
 XYZ=  -11.1027    1.3350    3.0361 Q=   -0.8200 A=    0.0000 R=    0.0000 C=    0.0000
 XYZ=  -10.1046    1.3335    3.0973 Q=    0.4100 A=    0.0000 R=    0.0000 C=    0.0000
 XYZ=  -11.4052    0.5443    2.5038 Q=    0.4100 A=    0.0000 R=    0.0000 C=    0.0000
 XYZ=   -0.6572   11.4754    2.9556 Q=   -0.8200 A=    0.0000 R=    0.0000 C=    0.0000
 XYZ=   -0.7732   10.5442    3.3014 Q=    0.4100 A=    0.0000 R=    0.0000 C=    0.0000
 XYZ=   -0.6098   11.4564    1.9569 Q=    0.4100 A=    0.0000 R=    0.0000 C=    0.0000
 XYZ=   -5.9791   -6.8293   -5.2128 Q=   -0.8200 A=    0.0000 R=    0.0000 C=    0.0000
 XYZ=   -6.2300   -5.9130   -4.9005 Q=    0.4100 A=    0.0000 R=    0.0000 C=    0.0000
 XYZ=   -6.2755   -7.5044   -4.5372 Q=    0.4100 A=    0.0000 R=    0.0000 C=    0.0000
 XYZ=   -4.2467    5.4330   -8.6404 Q=   -0.8200 A=    0.0000 R=    0.0000 C=    0.0000
 XYZ=   -4.0182    6.2535   -9.1644 Q=    0.4100 A=    0.0000 R=    0.0000 C=    0.0000
 XYZ=   -5.2407    5.3413   -8.5814 Q=    0.4100 A=    0.0000 R=    0.0000 C=    0.0000
 XYZ=   -4.0867  -10.1667    3.5033 Q=   -0.8200 A=    0.0000 R=    0.0000 C=    0.0000
 XYZ=   -3.2254   -9.6963    3.6950 Q=    0.4100 A=    0.0000 R=    0.0000 C=    0.0000
 XYZ=   -4.4552   -9.8450    2.6311 Q=    0.4100 A=    0.0000 R=    0.0000 C=    0.0000
 XYZ=   -3.0756  -10.4439    0.4100 Q=   -0.8200 A=    0.0000 R=    0.0000 C=    0.0000
 XYZ=   -2.7596  -11.2159    0.9616 Q=    0.4100 A=    0.0000 R=    0.0000 C=    0.0000
 XYZ=   -3.2347  -10.7484   -0.5292 Q=    0.4100 A=    0.0000 R=    0.0000 C=    0.0000
 XYZ=  -11.1699   -0.6322    1.6447 Q=   -0.8200 A=    0.0000 R=    0.0000 C=    0.0000
 XYZ=  -11.0048   -0.2144    0.7513 Q=    0.4100 A=    0.0000 R=    0.0000 C=    0.0000
 XYZ=  -10.3298   -1.0662    1.9700 Q=    0.4100 A=    0.0000 R=    0.0000 C=    0.0000
 XYZ=  -10.1164   -2.1755    4.7914 Q=   -0.8200 A=    0.0000 R=    0.0000 C=    0.0000
 XYZ=   -9.8365   -2.0336    3.8419 Q=    0.4100 A=    0.0000 R=    0.0000 C=    0.0000
 XYZ=  -10.7640   -2.9361    4.8378 Q=    0.4100 A=    0.0000 R=    0.0000 C=    0.0000
 XYZ=   -1.1299  -11.0054   -4.6442 Q=   -0.8200 A=    0.0000 R=    0.0000 C=    0.0000
 XYZ=   -0.2097  -10.9174   -4.2627 Q=    0.4100 A=    0.0000 R=    0.0000 C=    0.0000
 XYZ=   -1.3137  -10.2335   -5.2528 Q=    0.4100 A=    0.0000 R=    0.0000 C=    0.0000
 XYZ=   -4.6232   -4.3031    9.0099 Q=   -0.8200 A=    0.0000 R=    0.0000 C=    0.0000
 XYZ=   -5.3316   -4.9938    9.1554 Q=    0.4100 A=    0.0000 R=    0.0000 C=    0.0000
 XYZ=   -4.2877   -3.9785    9.8943 Q=    0.4100 A=    0.0000 R=    0.0000 C=    0.0000
 XYZ=   -0.9731    2.7061  -12.0901 Q=   -0.8200 A=    0.0000 R=    0.0000 C=    0.0000
 XYZ=   -0.2660    2.9749  -11.4361 Q=    0.4100 A=    0.0000 R=    0.0000 C=    0.0000
 XYZ=   -1.3172    1.7973  -11.8539 Q=    0.4100 A=    0.0000 R=    0.0000 C=    0.0000
 XYZ=   -9.1701   -6.2002    2.0242 Q=   -0.8200 A=    0.0000 R=    0.0000 C=    0.0000
 XYZ=   -9.8449   -6.5666    1.3835 Q=    0.4100 A=    0.0000 R=    0.0000 C=    0.0000
 XYZ=   -8.7936   -5.3481    1.6606 Q=    0.4100 A=    0.0000 R=    0.0000 C=    0.0000
 XYZ=   -3.0294   -6.7541   -9.7730 Q=   -0.8200 A=    0.0000 R=    0.0000 C=    0.0000
 XYZ=   -3.6956   -6.1987  -10.2708 Q=    0.4100 A=    0.0000 R=    0.0000 C=    0.0000
 XYZ=   -2.5786   -6.1920   -9.0796 Q=    0.4100 A=    0.0000 R=    0.0000 C=    0.0000
 XYZ=   -5.7250   10.6826   -4.4895 Q=   -0.8200 A=    0.0000 R=    0.0000 C=    0.0000
 XYZ=   -5.2714    9.9300   -4.0122 Q=    0.4100 A=    0.0000 R=    0.0000 C=    0.0000
 XYZ=   -5.3315   10.7830   -5.4034 Q=    0.4100 A=    0.0000 R=    0.0000 C=    0.0000
 XYZ=   -8.4659    8.2870    3.2004 Q=   -0.8200 A=    0.0000 R=    0.0000 C=    0.0000
 XYZ=   -8.4525    7.2896    3.2719 Q=    0.4100 A=    0.0000 R=    0.0000 C=    0.0000
 XYZ=   -8.1051    8.6864    4.0433 Q=    0.4100 A=    0.0000 R=    0.0000 C=    0.0000
 XYZ=   -9.3154    5.2628    5.8406 Q=   -0.8200 A=    0.0000 R=    0.0000 C=    0.0000
 XYZ=   -8.6508    4.5162    5.8734 Q=    0.4100 A=    0.0000 R=    0.0000 C=    0.0000
 XYZ=   -8.9264    6.0746    6.2760 Q=    0.4100 A=    0.0000 R=    0.0000 C=    0.0000
 XYZ=   -0.8255   -6.7553  -10.4546 Q=   -0.8200 A=    0.0000 R=    0.0000 C=    0.0000
 XYZ=   -1.7870   -6.9324  -10.2445 Q=    0.4100 A=    0.0000 R=    0.0000 C=    0.0000
 XYZ=   -0.5749   -5.8445  -10.1264 Q=    0.4100 A=    0.0000 R=    0.0000 C=    0.0000
 XYZ=   -3.9762    5.3293   10.5811 Q=   -0.8200 A=    0.0000 R=    0.0000 C=    0.0000
 XYZ=   -4.3898    6.2134   10.3632 Q=    0.4100 A=    0.0000 R=    0.0000 C=    0.0000
 XYZ=   -3.5816    4.9327    9.7523 Q=    0.4100 A=    0.0000 R=    0.0000 C=    0.0000
 XYZ=    8.6130    7.8620   -1.5079 Q=   -0.8200 A=    0.0000 R=    0.0000 C=    0.0000
 XYZ=    8.6492    8.0745   -2.4844 Q=    0.4100 A=    0.0000 R=    0.0000 C=    0.0000
 XYZ=    7.8059    7.3028   -1.3182 Q=    0.4100 A=    0.0000 R=    0.0000 C=    0.0000
 XYZ=   -6.5779   -8.3830    0.0047 Q=   -0.8200 A=    0.0000 R=    0.0000 C=    0.0000
 XYZ=   -7.1285   -8.4636    0.8356 Q=    0.4100 A=    0.0000 R=    0.0000 C=    0.0000
 XYZ=   -6.8794   -9.0644   -0.6622 Q=    0.4100 A=    0.0000 R=    0.0000 C=    0.0000
 XYZ=    3.5633    3.6156    9.7953 Q=   -0.8200 A=    0.0000 R=    0.0000 C=    0.0000
 XYZ=    3.9312    3.2611   10.6549 Q=    0.4100 A=    0.0000 R=    0.0000 C=    0.0000
 XYZ=    3.6932    4.6066    9.7606 Q=    0.4100 A=    0.0000 R=    0.0000 C=    0.0000
 XYZ=    3.7200    5.8941    9.4097 Q=   -0.8200 A=    0.0000 R=    0.0000 C=    0.0000
 XYZ=    4.4894    6.3331    9.8737 Q=    0.4100 A=    0.0000 R=    0.0000 C=    0.0000
 XYZ=    3.9217    5.8129    8.4336 Q=    0.4100 A=    0.0000 R=    0.0000 C=    0.0000
 XYZ=   -0.0298    5.8051   10.3374 Q=   -0.8200 A=    0.0000 R=    0.0000 C=    0.0000
 XYZ=   -0.7949    5.6998   10.9727 Q=    0.4100 A=    0.0000 R=    0.0000 C=    0.0000
 XYZ=    0.4435    4.9298   10.2377 Q=    0.4100 A=    0.0000 R=    0.0000 C=    0.0000
 XYZ=   -7.5732   -3.7182   -6.8223 Q=   -0.8200 A=    0.0000 R=    0.0000 C=    0.0000
 XYZ=   -6.8402   -4.1126   -7.3766 Q=    0.4100 A=    0.0000 R=    0.0000 C=    0.0000
 XYZ=   -7.8161   -2.8177   -7.1829 Q=    0.4100 A=    0.0000 R=    0.0000 C=    0.0000
 XYZ=   -2.8985    4.2316  -11.3096 Q=   -0.8200 A=    0.0000 R=    0.0000 C=    0.0000
 XYZ=   -3.4826    3.7271  -10.6738 Q=    0.4100 A=    0.0000 R=    0.0000 C=    0.0000
 XYZ=   -2.2689    3.5975  -11.7586 Q=    0.4100 A=    0.0000 R=    0.0000 C=    0.0000
 XYZ=    6.7813    7.7445    4.7924 Q=   -0.8200 A=    0.0000 R=    0.0000 C=    0.0000
 XYZ=    7.2788    6.8954    4.9700 Q=    0.4100 A=    0.0000 R=    0.0000 C=    0.0000
 XYZ=    6.0514    7.5710    4.1311 Q=    0.4100 A=    0.0000 R=    0.0000 C=    0.0000
 XYZ=   -0.9964   -1.3777   12.0983 Q=   -0.8200 A=    0.0000 R=    0.0000 C=    0.0000
 XYZ=   -1.3338   -1.7024   11.2147 Q=    0.4100 A=    0.0000 R=    0.0000 C=    0.0000
 XYZ=   -1.6028   -0.6615   12.4439 Q=    0.4100 A=    0.0000 R=    0.0000 C=    0.0000
 XYZ=  -11.4930    2.0711   -1.3052 Q=   -0.8200 A=    0.0000 R=    0.0000 C=    0.0000
 XYZ=  -12.4762    1.9704   -1.1526 Q=    0.4100 A=    0.0000 R=    0.0000 C=    0.0000
 XYZ=  -11.1488    2.8389   -0.7648 Q=    0.4100 A=    0.0000 R=    0.0000 C=    0.0000
 XYZ=   -8.6312   -5.3502    6.2751 Q=   -0.8200 A=    0.0000 R=    0.0000 C=    0.0000
 XYZ=   -9.2475   -5.7213    5.5805 Q=    0.4100 A=    0.0000 R=    0.0000 C=    0.0000
 XYZ=   -8.3965   -4.4064    6.0424 Q=    0.4100 A=    0.0000 R=    0.0000 C=    0.0000
 XYZ=  -10.8062    2.5967   -3.4278 Q=   -0.8200 A=    0.0000 R=    0.0000 C=    0.0000
 XYZ=  -11.0364    2.4056   -2.4736 Q=    0.4100 A=    0.0000 R=    0.0000 C=    0.0000
 XYZ=  -11.5335    2.2523   -4.0215 Q=    0.4100 A=    0.0000 R=    0.0000 C=    0.0000
 XYZ=   -6.1756   10.5477    0.0825 Q=   -0.8200 A=    0.0000 R=    0.0000 C=    0.0000
 XYZ=   -6.4808   11.3245   -0.4685 Q=    0.4100 A=    0.0000 R=    0.0000 C=    0.0000
 XYZ=   -6.9653   10.1218    0.5242 Q=    0.4100 A=    0.0000 R=    0.0000 C=    0.0000
 XYZ=   10.1420    4.8064   -3.0749 Q=   -0.8200 A=    0.0000 R=    0.0000 C=    0.0000
 XYZ=   10.3506    5.5017   -2.3871 Q=    0.4100 A=    0.0000 R=    0.0000 C=    0.0000
 XYZ=   10.1491    3.9023   -2.6476 Q=    0.4100 A=    0.0000 R=    0.0000 C=    0.0000
 XYZ=    0.3307    2.6434   11.7106 Q=   -0.8200 A=    0.0000 R=    0.0000 C=    0.0000
 XYZ=    0.6863    3.2754   11.0220 Q=    0.4100 A=    0.0000 R=    0.0000 C=    0.0000
 XYZ=    0.8137    1.7704   11.6428 Q=    0.4100 A=    0.0000 R=    0.0000 C=    0.0000
 XYZ=   11.3151   -2.2506    4.3421 Q=   -0.8200 A=    0.0000 R=    0.0000 C=    0.0000
 XYZ=   10.6907   -2.5970    3.6420 Q=    0.4100 A=    0.0000 R=    0.0000 C=    0.0000
 XYZ=   10.8214   -2.1428    5.2051 Q=    0.4100 A=    0.0000 R=    0.0000 C=    0.0000
 XYZ=    8.0236    5.1831    5.6741 Q=   -0.8200 A=    0.0000 R=    0.0000 C=    0.0000
 XYZ=    7.8134    4.2058    5.6441 Q=    0.4100 A=    0.0000 R=    0.0000 C=    0.0000
 XYZ=    8.2781    5.4407    6.6062 Q=    0.4100 A=    0.0000 R=    0.0000 C=    0.0000
 XYZ=    1.0422   -1.6813  -12.6863 Q=   -0.8200 A=    0.0000 R=    0.0000 C=    0.0000
 XYZ=    1.5540   -1.0581  -12.0949 Q=    0.4100 A=    0.0000 R=    0.0000 C=    0.0000
 XYZ=    1.4573   -1.6935  -13.5960 Q=    0.4100 A=    0.0000 R=    0.0000 C=    0.0000
 XYZ=   -7.8031    9.3779    1.2530 Q=   -0.8200 A=    0.0000 R=    0.0000 C=    0.0000
 XYZ=   -8.5609    9.9231    0.8945 Q=    0.4100 A=    0.0000 R=    0.0000 C=    0.0000
 XYZ=   -8.1223    8.8330    2.0284 Q=    0.4100 A=    0.0000 R=    0.0000 C=    0.0000
 XYZ=   -6.7713    5.1374    8.9916 Q=   -0.8200 A=    0.0000 R=    0.0000 C=    0.0000
 XYZ=   -7.4635    5.8579    9.0350 Q=    0.4100 A=    0.0000 R=    0.0000 C=    0.0000
 XYZ=   -5.9187    5.5156    8.6310 Q=    0.4100 A=    0.0000 R=    0.0000 C=    0.0000
 XYZ=    1.9004    0.8042   12.0405 Q=   -0.8200 A=    0.0000 R=    0.0000 C=    0.0000
 XYZ=    2.1474    0.2895   11.2195 Q=    0.4100 A=    0.0000 R=    0.0000 C=    0.0000
 XYZ=    2.7235    0.9912   12.5768 Q=    0.4100 A=    0.0000 R=    0.0000 C=    0.0000
 XYZ=    7.1755    9.0046   -5.2712 Q=   -0.8200 A=    0.0000 R=    0.0000 C=    0.0000
 XYZ=    6.6389    8.1669   -5.1693 Q=    0.4100 A=    0.0000 R=    0.0000 C=    0.0000
 XYZ=    8.0135    8.9313   -4.7304 Q=    0.4100 A=    0.0000 R=    0.0000 C=    0.0000
 XYZ=   -7.7535    3.1036    8.4729 Q=   -0.8200 A=    0.0000 R=    0.0000 C=    0.0000
 XYZ=   -7.9690    2.5133    9.2508 Q=    0.4100 A=    0.0000 R=    0.0000 C=    0.0000
 XYZ=   -7.4381    3.9922    8.8063 Q=    0.4100 A=    0.0000 R=    0.0000 C=    0.0000
 XYZ=    0.1642   -9.8641   -9.1165 Q=   -0.8200 A=    0.0000 R=    0.0000 C=    0.0000
 XYZ=    0.1302   -9.2790   -9.9268 Q=    0.4100 A=    0.0000 R=    0.0000 C=    0.0000
 XYZ=    0.2691   -9.2965   -8.2998 Q=    0.4100 A=    0.0000 R=    0.0000 C=    0.0000
 XYZ=   -5.1154   -7.5312    7.3245 Q=   -0.8200 A=    0.0000 R=    0.0000 C=    0.0000
 XYZ=   -5.7326   -6.9293    6.8177 Q=    0.4100 A=    0.0000 R=    0.0000 C=    0.0000
 XYZ=   -5.0611   -7.2281    8.2760 Q=    0.4100 A=    0.0000 R=    0.0000 C=    0.0000
 XYZ=   -5.1359   11.2632    2.1780 Q=   -0.8200 A=    0.0000 R=    0.0000 C=    0.0000
 XYZ=   -5.8662   11.4333    2.8396 Q=    0.4100 A=    0.0000 R=    0.0000 C=    0.0000
 XYZ=   -5.5351   10.9758    1.3073 Q=    0.4100 A=    0.0000 R=    0.0000 C=    0.0000
 XYZ=   -9.8448    3.7903   -6.7833 Q=   -0.8200 A=    0.0000 R=    0.0000 C=    0.0000
 XYZ=  -10.3838    4.3445   -7.4177 Q=    0.4100 A=    0.0000 R=    0.0000 C=    0.0000
 XYZ=   -8.8762    4.0194   -6.8808 Q=    0.4100 A=    0.0000 R=    0.0000 C=    0.0000
 XYZ=   -9.7412    1.5590    7.8313 Q=   -0.8200 A=    0.0000 R=    0.0000 C=    0.0000
 XYZ=   -9.2933    0.8578    7.2766 Q=    0.4100 A=    0.0000 R=    0.0000 C=    0.0000
 XYZ=   -9.0946    2.2983    8.0196 Q=    0.4100 A=    0.0000 R=    0.0000 C=    0.0000
 XYZ=   -4.4109   -5.0488  -10.5701 Q=   -0.8200 A=    0.0000 R=    0.0000 C=    0.0000
 XYZ=   -4.7258   -4.7648  -11.4758 Q=    0.4100 A=    0.0000 R=    0.0000 C=    0.0000
 XYZ=   -3.6240   -4.4932  -10.3015 Q=    0.4100 A=    0.0000 R=    0.0000 C=    0.0000
 XYZ=   -6.1734    3.3224  -10.4226 Q=   -0.8200 A=    0.0000 R=    0.0000 C=    0.0000
 XYZ=   -6.7235    2.5304  -10.1577 Q=    0.4100 A=    0.0000 R=    0.0000 C=    0.0000
 XYZ=   -5.2035    3.0808  -10.3890 Q=    0.4100 A=    0.0000 R=    0.0000 C=    0.0000
 XYZ=    8.7396   -9.2427    1.3677 Q=   -0.8200 A=    0.0000 R=    0.0000 C=    0.0000
 XYZ=    9.3818   -9.0066    0.6384 Q=    0.4100 A=    0.0000 R=    0.0000 C=    0.0000
 XYZ=    8.9138   -8.6651    2.1652 Q=    0.4100 A=    0.0000 R=    0.0000 C=    0.0000
 XYZ=   -1.3188   10.8001    6.5257 Q=   -0.8200 A=    0.0000 R=    0.0000 C=    0.0000
 XYZ=   -1.0406    9.8443    6.4308 Q=    0.4100 A=    0.0000 R=    0.0000 C=    0.0000
 XYZ=   -0.9972   11.3209    5.7348 Q=    0.4100 A=    0.0000 R=    0.0000 C=    0.0000
 XYZ=   -1.3210   -1.3788  -12.9611 Q=   -0.8200 A=    0.0000 R=    0.0000 C=    0.0000
 XYZ=   -1.6124   -0.6562  -12.3342 Q=    0.4100 A=    0.0000 R=    0.0000 C=    0.0000
 XYZ=   -0.3262   -1.4728  -12.9220 Q=    0.4100 A=    0.0000 R=    0.0000 C=    0.0000
 XYZ=   -1.9517    3.0753   11.5552 Q=   -0.8200 A=    0.0000 R=    0.0000 C=    0.0000
 XYZ=   -1.0021    2.7750   11.6464 Q=    0.4100 A=    0.0000 R=    0.0000 C=    0.0000
 XYZ=   -2.0007    4.0668   11.6762 Q=    0.4100 A=    0.0000 R=    0.0000 C=    0.0000
 XYZ=   -6.1397   -7.1195   -7.5050 Q=   -0.8200 A=    0.0000 R=    0.0000 C=    0.0000
 XYZ=   -5.5372   -7.8928   -7.7021 Q=    0.4100 A=    0.0000 R=    0.0000 C=    0.0000
 XYZ=   -6.1125   -6.9168   -6.5261 Q=    0.4100 A=    0.0000 R=    0.0000 C=    0.0000
 XYZ=   11.8578    1.8951    2.9669 Q=   -0.8200 A=    0.0000 R=    0.0000 C=    0.0000
 XYZ=   12.2116    0.9621    2.9013 Q=    0.4100 A=    0.0000 R=    0.0000 C=    0.0000
 XYZ=   11.0423    1.9833    2.3948 Q=    0.4100 A=    0.0000 R=    0.0000 C=    0.0000
 XYZ=   -4.3450   11.0198   -6.4324 Q=   -0.8200 A=    0.0000 R=    0.0000 C=    0.0000
 XYZ=   -3.8211   10.5052   -5.7536 Q=    0.4100 A=    0.0000 R=    0.0000 C=    0.0000
 XYZ=   -3.9258   11.9178   -6.5661 Q=    0.4100 A=    0.0000 R=    0.0000 C=    0.0000
 XYZ=   -6.5373    4.9930   -8.9650 Q=   -0.8200 A=    0.0000 R=    0.0000 C=    0.0000
 XYZ=   -7.0178    5.7704   -9.3710 Q=    0.4100 A=    0.0000 R=    0.0000 C=    0.0000
 XYZ=   -6.4757    4.2528   -9.6346 Q=    0.4100 A=    0.0000 R=    0.0000 C=    0.0000
 XYZ=    9.0147   -3.4185    7.7158 Q=   -0.8200 A=    0.0000 R=    0.0000 C=    0.0000
 XYZ=    8.2963   -2.8895    8.1676 Q=    0.4100 A=    0.0000 R=    0.0000 C=    0.0000
 XYZ=    9.4208   -4.0561    8.3704 Q=    0.4100 A=    0.0000 R=    0.0000 C=    0.0000
[...]
    39  O    0.000000   0.000000   0.000000   0.000000   0.000000  -0.000081
    40  H    0.000000   0.000000   0.000000   0.000000   0.000000  -0.000002
    41  H    0.000000   0.000000   0.000000   0.000000   0.000000   0.000022
    42  O    0.000105   0.000008   0.000070  -0.000001   0.000037  -0.112373
    43  H    0.000000   0.000000  -0.000001   0.000000   0.000000   0.052124
    44  H   -0.000001   0.000000  -0.000002   0.000000   0.000000   0.000978
    45  O    0.010646  -0.001023  -0.092461  -0.000891   0.065198   0.000000
    46  H    0.000895   0.000030  -0.001468  -0.000212  -0.000195   0.000000
    47  H    0.002309  -0.000116   0.004699   0.000108  -0.002504   0.000002
    48  O    0.000000   0.000000   0.000000   0.000000   0.000000  -0.004554
    49  H    0.000000   0.000000   0.000000   0.000000   0.000000   0.000796
    50  H    0.000000   0.000000   0.000000   0.000000   0.000000  -0.000800
              31         32         33         34         35         36
     1  C    0.000070  -0.000018   0.001122  -0.000330  -0.000013   0.000236
     2  H    0.000000   0.000000  -0.000010   0.000000   0.000000   0.000052
     3  H    0.000000   0.000000   0.000000   0.000000   0.000000  -0.000001
     4  C    0.000557   0.000007  -0.008222   0.004307   0.000137   0.000218
     5  H    0.000000   0.000000  -0.000012   0.000001   0.000000   0.000000
     6  C   -0.000041  -0.000052  -0.016581   0.001840   0.000142  -0.000869
     7  H    0.000010   0.000000  -0.000595   0.001403   0.000003  -0.000001
     8  O   -0.000419   0.000016   0.012077  -0.004645  -0.000051   0.000186
     9  O   -0.000226   0.000039  -0.011111   0.039920  -0.000816   0.000001
    10  H    0.000017   0.000000   0.000216  -0.000288   0.000027  -0.000001
    11  H    0.000008   0.000000  -0.004263  -0.000140   0.000028   0.000000
    12  O    0.000000   0.000000   0.000000   0.000000   0.000000   0.000000
    13  H    0.000000   0.000000   0.000000   0.000000   0.000000   0.000000
    14  H    0.000000   0.000000   0.000000   0.000000   0.000000   0.000000
    15  O    0.000000   0.000000   0.000000   0.000000   0.000000   0.000000
    16  H    0.000000   0.000000   0.000000   0.000000   0.000000   0.000000
    17  H    0.000000   0.000000   0.000000   0.000000   0.000000   0.000000
    18  O    0.000002   0.000000  -0.000103  -0.000002   0.000000   0.000015
    19  H    0.000000   0.000000   0.000002   0.000000   0.000000   0.000000
    20  H    0.000000   0.000000  -0.000060   0.000003   0.000000   0.000000
    21  O    0.000000   0.000000   0.000000   0.000000   0.000000   0.000182
    22  H    0.000000   0.000000   0.000000   0.000000   0.000000  -0.000002
    23  H    0.000000   0.000000   0.000000   0.000000   0.000000   0.000122
    24  O    0.000000   0.000000   0.000000   0.000000   0.000000  -0.003761
    25  H    0.000000   0.000000   0.000000   0.000000   0.000000   0.003193
    26  H    0.000000   0.000000   0.000000   0.000000   0.000000   0.000061
    27  O    0.000000   0.000000   0.000000   0.000000   0.000000  -0.005816
    28  H    0.000000   0.000000   0.000000   0.000000   0.000000   0.000233
    29  H    0.000000   0.000000   0.000000   0.000000   0.000000   0.001447
    30  O    0.162920   0.210656  -0.056065   0.000509   0.000929  -0.002473
    31  H    0.170097  -0.009609   0.027259   0.000421  -0.000392   0.000086
    32  H   -0.009609   0.195565   0.001359   0.000233  -0.000571   0.000010
    33  O    0.027259   0.001359   9.100761   0.128317   0.188624   0.000034
    34  H    0.000421   0.000233   0.128317   0.200035  -0.004198   0.000000
    35  H   -0.000392  -0.000571   0.188624  -0.004198   0.141727   0.000000
    36  O    0.000086   0.000010   0.000034   0.000000   0.000000   9.107974
    37  H   -0.000062   0.000004  -0.000004   0.000000   0.000000   0.128551
    38  H    0.000000   0.000000   0.000000   0.000000   0.000000   0.201351
    39  O   -0.000013   0.000000  -0.003805  -0.002958   0.000017   0.000000
    40  H    0.000000   0.000000  -0.000190  -0.000062  -0.000005   0.000000
    41  H    0.000002   0.000000  -0.001214   0.000527   0.000057   0.000000
    42  O    0.000579   0.004350  -0.000328   0.000041  -0.000007  -0.114894
    43  H   -0.000189  -0.000854   0.000282  -0.000018  -0.000002  -0.000485
    44  H    0.000035  -0.000064   0.000000   0.000000   0.000000   0.001830
    45  O    0.000002   0.000000  -0.000001   0.000000   0.000000  -0.148278
    46  H    0.000000   0.000000   0.000000   0.000000   0.000000  -0.000581
    47  H    0.000000   0.000000   0.000000   0.000000   0.000000   0.048089
    48  O   -0.001117  -0.000457  -0.102211   0.002624  -0.002698   0.000083
    49  H   -0.000176  -0.000016   0.002041  -0.000081   0.000062   0.000010
    50  H   -0.000066  -0.000217   0.007958   0.000316   0.001615   0.000005
              37         38         39         40         41         42
     1  C    0.000078   0.000007   0.000463   0.000006  -0.000560  -0.000263
     2  H   -0.000001   0.000000   0.000000   0.000000   0.000000  -0.000002
     3  H    0.000000   0.000000   0.000000   0.000000   0.000000   0.000000
     4  C   -0.000006   0.000010  -0.003838   0.000077   0.000278   0.000165
     5  H    0.000000   0.000000  -0.000007   0.000000  -0.000002   0.000000
     6  C    0.000013   0.000013  -0.007110   0.000397   0.001032  -0.000406
     7  H    0.000000   0.000000   0.000281   0.000025   0.000310   0.000002
     8  O   -0.000020  -0.000002   0.000478  -0.000015   0.000408   0.000050
     9  O    0.000000   0.000000  -0.012752  -0.000218   0.046767   0.000024
    10  H    0.000000   0.000000   0.002349   0.000167  -0.000952   0.000002
    11  H    0.000000   0.000000  -0.002999  -0.000325  -0.004607   0.000000
    12  O    0.000000   0.000000   0.000000   0.000000   0.000000   0.000000
    13  H    0.000000   0.000000   0.000000   0.000000   0.000000   0.000000
    14  H    0.000000   0.000000   0.000000   0.000000   0.000000   0.000000
    15  O    0.000000   0.000000   0.000000   0.000000   0.000000   0.000000
    16  H    0.000000   0.000000   0.000000   0.000000   0.000000   0.000000
    17  H    0.000000   0.000000   0.000000   0.000000   0.000000   0.000000
    18  O   -0.000001   0.000000  -0.000001   0.000000   0.000006  -0.000003
    19  H    0.000000   0.000000   0.000000   0.000000   0.000000   0.000000
    20  H    0.000000   0.000000   0.000000   0.000000   0.000002   0.000000
    21  O   -0.000015  -0.000009   0.000000   0.000000   0.000000  -0.000030
    22  H    0.000000   0.000000   0.000000   0.000000   0.000000   0.000000
    23  H    0.000000   0.000000   0.000000   0.000000   0.000000   0.000000
    24  O   -0.000271  -0.000214   0.000000   0.000000   0.000000  -0.000749
    25  H   -0.000075  -0.000043   0.000000   0.000000   0.000000   0.000105
    26  H   -0.000003   0.000005   0.000000   0.000000   0.000000   0.000008
    27  O    0.000054   0.000062   0.000000   0.000000   0.000000   0.000070
    28  H    0.000000  -0.000001   0.000000   0.000000   0.000000  -0.000001
    29  H   -0.000007   0.000083   0.000000   0.000000   0.000000   0.000037
    30  O    0.000144   0.000072  -0.000081  -0.000002   0.000022  -0.112373
    31  H   -0.000062   0.000000  -0.000013   0.000000   0.000002   0.000579
    32  H    0.000004   0.000000   0.000000   0.000000   0.000000   0.004350
    33  O   -0.000004   0.000000  -0.003805  -0.000190  -0.001214  -0.000328
    34  H    0.000000   0.000000  -0.002958  -0.000062   0.000527   0.000041
    35  H    0.000000   0.000000   0.000017  -0.000005   0.000057  -0.000007
    36  O    0.128551   0.201351   0.000000   0.000000   0.000000  -0.114894
    37  H    0.149641  -0.002790   0.000000   0.000000   0.000000   0.059721
    38  H   -0.002790   0.237587   0.000000   0.000000   0.000000   0.003088
    39  O    0.000000   0.000000   8.907178   0.209236   0.140097   0.000000
    40  H    0.000000   0.000000   0.209236   0.193739  -0.005789   0.000000
    41  H    0.000000   0.000000   0.140097  -0.005789   0.201647   0.000000
    42  O    0.059721   0.003088   0.000000   0.000000   0.000000   9.061566
    43  H    0.001740   0.000154   0.000000   0.000000   0.000000   0.143663
    44  H    0.000206  -0.000243   0.000000   0.000000   0.000000   0.192093
    45  O    0.001224   0.002202   0.000000   0.000000   0.000000  -0.002656
    46  H    0.000062  -0.000369   0.000000   0.000000   0.000000   0.000011
    47  H    0.001595   0.000762   0.000000   0.000000   0.000000   0.000679
    48  O   -0.000004   0.000000  -0.000254  -0.000067   0.000330  -0.000336
    49  H    0.000000   0.000000  -0.000003   0.000000   0.000000  -0.000020
    50  H    0.000000   0.000000  -0.000016  -0.000002   0.000074   0.000007
              43         44         45         46         47         48
     1  C    0.000088   0.000008  -0.000490   0.000013   0.000108  -0.000529
     2  H    0.000000   0.000000   0.000027   0.000000  -0.000003   0.000002
     3  H    0.000000   0.000000  -0.000008   0.000000   0.000000   0.000000
     4  C   -0.000053   0.000011   0.001603  -0.000025  -0.000313  -0.000228
     5  H    0.000000   0.000000   0.000000   0.000000   0.000000   0.000001
     6  C    0.000198  -0.000014  -0.001021   0.000023   0.000235  -0.001705
     7  H    0.000000   0.000000   0.000000   0.000000   0.000000   0.001064
     8  O   -0.000001  -0.000003   0.000040   0.000000  -0.000012  -0.005726
     9  O    0.000003   0.000000   0.000000   0.000000   0.000000  -0.010610
    10  H    0.000000   0.000000   0.000000   0.000000   0.000000   0.001439
    11  H    0.000000   0.000000   0.000000   0.000000   0.000000  -0.001649
    12  O    0.000000   0.000000  -0.000001   0.000000   0.000000   0.000008
    13  H    0.000000   0.000000   0.000000   0.000000   0.000000   0.000000
    14  H    0.000000   0.000000   0.000000   0.000000   0.000000   0.000000
    15  O    0.000000   0.000000   0.000000   0.000000   0.000000   0.000000
    16  H    0.000000   0.000000   0.000000   0.000000   0.000000   0.000000
    17  H    0.000000   0.000000   0.000000   0.000000   0.000000   0.000000
    18  O    0.000000   0.000000   0.000007   0.000000   0.000000  -0.000276
    19  H    0.000000   0.000000   0.000000   0.000000   0.000000  -0.000002
    20  H    0.000000   0.000000   0.000000   0.000000   0.000000  -0.000171
    21  O    0.000000   0.000000  -0.000305  -0.000144   0.000072   0.000000
    22  H    0.000000   0.000000  -0.000012   0.000001   0.000000   0.000000
    23  H    0.000000   0.000000   0.002988   0.000007  -0.000061   0.000000
    24  O    0.000007   0.000058  -0.068150   0.002116   0.006154   0.000000
    25  H    0.000000  -0.000001   0.010646   0.000895   0.002309   0.000000
    26  H    0.000000   0.000000  -0.001023   0.000030  -0.000116   0.000000
    27  O   -0.000001  -0.000002  -0.092461  -0.001468   0.004699   0.000000
    28  H    0.000000   0.000000  -0.000891  -0.000212   0.000108   0.000000
    29  H    0.000000   0.000000   0.065198  -0.000195  -0.002504   0.000000
    30  O    0.052124   0.000978   0.000000   0.000000   0.000002  -0.004554
    31  H   -0.000189   0.000035   0.000002   0.000000   0.000000  -0.001117
    32  H   -0.000854  -0.000064   0.000000   0.000000   0.000000  -0.000457
    33  O    0.000282   0.000000  -0.000001   0.000000   0.000000  -0.102211
    34  H   -0.000018   0.000000   0.000000   0.000000   0.000000   0.002624
    35  H   -0.000002   0.000000   0.000000   0.000000   0.000000  -0.002698
    36  O   -0.000485   0.001830  -0.148278  -0.000581   0.048089   0.000083
    37  H    0.001740   0.000206   0.001224   0.000062   0.001595  -0.000004
    38  H    0.000154  -0.000243   0.002202  -0.000369   0.000762   0.000000
    39  O    0.000000   0.000000   0.000000   0.000000   0.000000  -0.000254
    40  H    0.000000   0.000000   0.000000   0.000000   0.000000  -0.000067
    41  H    0.000000   0.000000   0.000000   0.000000   0.000000   0.000330
    42  O    0.143663   0.192093  -0.002656   0.000011   0.000679  -0.000336
    43  H    0.184173  -0.002479  -0.000017   0.000000  -0.000013  -0.000017
    44  H   -0.002479   0.154784  -0.000030   0.000000  -0.000054   0.000004
    45  O   -0.000017  -0.000030   9.231580   0.184111   0.132474   0.000000
    46  H    0.000000   0.000000   0.184111   0.148598   0.002775   0.000000
    47  H   -0.000013  -0.000054   0.132474   0.002775   0.215441   0.000000
    48  O   -0.000017   0.000004   0.000000   0.000000   0.000000   9.050203
    49  H   -0.000002   0.000000   0.000000   0.000000   0.000000   0.195862
    50  H   -0.000014   0.000000   0.000000   0.000000   0.000000   0.121859
              49         50
     1  C    0.000004   0.000027
     2  H    0.000000   0.000000
     3  H    0.000000   0.000000
     4  C    0.000288   0.000141
     5  H    0.000000   0.000000
     6  C    0.000563  -0.000217
     7  H   -0.000011   0.000040
     8  O   -0.000224   0.000221
     9  O    0.000226  -0.005385
    10  H   -0.000085   0.000381
    11  H   -0.000034   0.000074
    12  O    0.000000   0.000000
    13  H    0.000000   0.000000
    14  H    0.000000   0.000000
    15  O    0.000000   0.000000
    16  H    0.000000   0.000000
    17  H    0.000000   0.000000
    18  O   -0.000034   0.000017
    19  H    0.000000   0.000000
    20  H   -0.000012   0.000011
    21  O    0.000000   0.000000
    22  H    0.000000   0.000000
    23  H    0.000000   0.000000
    24  O    0.000000   0.000000
    25  H    0.000000   0.000000
    26  H    0.000000   0.000000
    27  O    0.000000   0.000000
    28  H    0.000000   0.000000
    29  H    0.000000   0.000000
    30  O    0.000796  -0.000800
    31  H   -0.000176  -0.000066
    32  H   -0.000016  -0.000217
    33  O    0.002041   0.007958
    34  H   -0.000081   0.000316
    35  H    0.000062   0.001615
    36  O    0.000010   0.000005
    37  H    0.000000   0.000000
    38  H    0.000000   0.000000
    39  O   -0.000003  -0.000016
    40  H    0.000000  -0.000002
    41  H    0.000000   0.000074
    42  O   -0.000020   0.000007
    43  H   -0.000002  -0.000014
    44  H    0.000000   0.000000
    45  O    0.000000   0.000000
    46  H    0.000000   0.000000
    47  H    0.000000   0.000000
    48  O    0.195862   0.121859
    49  H    0.167582  -0.000347
    50  H   -0.000347   0.282812
 Mulliken charges:
               1
     1  C   -0.324504
     2  H    0.268371
     3  H    0.222815
     4  C   -0.321348
     5  H    0.219215
     6  C    0.149497
     7  H    0.115329
     8  O   -0.285093
     9  O   -1.219453
    10  H    0.490525
    11  H    0.662050
    12  O   -1.254966
    13  H    0.591910
    14  H    0.646209
    15  O   -1.177808
    16  H    0.577386
    17  H    0.640161
    18  O   -1.098236
    19  H    0.625275
    20  H    0.465995
    21  O   -1.125089
    22  H    0.596004
    23  H    0.561649
    24  O   -1.236161
    25  H    0.593334
    26  H    0.609796
    27  O   -1.315146
    28  H    0.631626
    29  H    0.659130
    30  O   -1.220528
    31  H    0.650245
    32  H    0.599620
    33  O   -1.265277
    34  H    0.632226
    35  H    0.675386
    36  O   -1.216806
    37  H    0.660227
    38  H    0.558276
    39  O   -1.226261
    40  H    0.603028
    41  H    0.621567
    42  O   -1.234190
    43  H    0.621715
    44  H    0.652885
    45  O   -1.316759
    46  H    0.664354
    47  H    0.587573
    48  O   -1.240868
    49  H    0.633611
    50  H    0.591504
 Sum of Mulliken charges =   0.00000
 Mulliken charges with hydrogens summed into heavy atoms:
               1
     1  C    0.166681
     4  C   -0.102133
     6  C    0.264826
     8  O   -0.285093
     9  O   -0.066879
    12  O   -0.016847
    15  O    0.039740
    18  O   -0.006966
    21  O    0.032563
    24  O   -0.033031
    27  O   -0.024390
    30  O    0.029336
    33  O    0.042336
    36  O    0.001697
    39  O   -0.001666
    42  O    0.040410
    45  O   -0.064832
    48  O   -0.015753
 Electronic spatial extent (au):  <R**2>=          11235.7894
 Charge=              0.0000 electrons
 Dipole moment (field-independent basis, Debye):
    X=             -5.6083    Y=              5.4420    Z=             -3.9560  Tot=              8.7589
 Quadrupole moment (field-independent basis, Debye-Ang):
   XX=           -139.2055   YY=            -14.0787   ZZ=           -140.6498
   XY=              2.1932   XZ=             24.9855   YZ=            -16.3266
 Traceless Quadrupole moment (field-independent basis, Debye-Ang):
   XX=            -41.2275   YY=             83.8993   ZZ=            -42.6718
   XY=              2.1932   XZ=             24.9855   YZ=            -16.3266
 Octapole moment (field-independent basis, Debye-Ang**2):
  XXX=            -43.6608  YYY=            236.9110  ZZZ=            -22.4677  XYY=           -124.9465
  XXY=             50.2403  XXZ=            198.0344  XZZ=            114.5452  YZZ=             14.7599
  YYZ=           -106.0583  XYZ=            -29.6056
 Hexadecapole moment (field-independent basis, Debye-Ang**3):
 XXXX=          -8383.1304 YYYY=          -1388.7888 ZZZZ=          -1465.1521 XXXY=            378.6232
 XXXZ=            226.7044 YYYX=           -526.6279 YYYZ=              0.3585 ZZZX=             70.9459
 ZZZY=           -211.2516 XXYY=           -868.0689 XXZZ=          -1633.3941 YYZZ=          -1029.8739
 XXYZ=           -228.0300 YYXZ=            202.1866 ZZXY=            -24.3718
 N-N= 1.147665327688D+03 E-N=-6.263406226342D+03  KE= 1.250144030298D+03
 Leave Link  601 at Fri Sep 14 18:13:55 2018, MaxMem=    33554432 cpu:        16.1
 (Enter /usr/local/pacerepov1/gaussian/G09D01LINDA/g09/l9999.exe)

 Test job not archived.
 1\1\GINC-RICH133-G13-12-L\SP\RLC-wPBE TD-FC\6-31+G(d)\C3H32O15\ROOT\14
 -Sep-2018\0\\#p td=(nstates=15)/6-31+g(d) lc-wpbe charge\\Acroleina in
  Water\\0,1\C,0,0.485154,0.480443,-1.430142\H,0,1.461403,0.187773,-1.0
 55732\H,0,0.429244,0.878853,-2.437062\C,0,-0.605127,0.346563,-0.658432
 \H,0,-1.591686,0.632893,-1.012412\C,0,-0.508516,-0.199107,0.712798\H,0
 ,-1.458487,-0.272107,1.272438\O,0,0.544883,-0.561317,1.236519\O,0,-1.5
 17181,-1.004985,3.157132\H,0,-1.184691,-0.397785,2.435492\H,0,-1.41352
 1,-0.555885,4.044602\O,0,1.104139,3.779945,0.776782\H,0,1.685099,3.960
 775,-0.016808\H,0,0.147399,3.938215,0.532432\O,0,-0.985901,4.464205,0.
 000052\H,0,-0.470861,5.289385,-0.231928\H,0,-1.943041,4.583505,-0.2639
 38\O,0,1.895969,2.134165,2.175232\H,0,1.579719,2.902285,1.618412\H,0,1
 .159049,1.837075,2.782432\O,0,2.32356,-0.946615,-3.869648\H,0,1.948669
 ,-0.682185,-4.758258\H,0,2.86976,-0.194335,-3.501178\O,0,3.867769,-2.7
 54675,-3.592988\H,0,4.44433,-2.550155,-2.801898\H,0,3.2053,-2.016785,-
 3.722248\O,0,4.13274,0.051325,-2.651448\H,0,4.661729,0.037325,-3.49996
 8\H,0,4.352019,-0.759385,-2.108588\O,0,1.215339,-4.611085,2.182372\H,0
 ,0.535299,-3.909285,2.394752\H,0,1.457369,-5.104305,3.017952\O,0,-0.28
 1581,-3.274865,3.240512\H,0,-0.893391,-2.498525,3.088762\H,0,-0.801361
 ,-4.039165,3.622172\O,0,4.42781,-3.136775,-0.083388\H,0,3.778069,-3.77
 7945,0.325042\H,0,5.35653,-3.493505,0.018032\O,0,-3.84935,-1.152685,3.
 683792\H,0,-3.810971,-1.709875,4.513322\H,0,-2.92272,-1.006445,3.33737
 2\O,0,3.083849,-4.707675,0.835502\H,0,2.16713,-4.581525,1.214672\H,0,3
 .048,-5.375565,0.092062\O,0,5.2974,-1.909835,-1.747588\H,0,6.09602,-1.
 402335,-1.423978\H,0,4.947559,-2.486735,-1.009448\O,0,1.037899,-1.8512
 65,4.412472\H,0,1.953269,-1.802975,4.012692\H,0,0.438329,-2.377825,3.8
 09722\\Version=EM64L-G09RevD.01\State=1-A\HF=-1758.9961538\RMSD=3.425e
 -09\PG=C01 [X(C3H32O15)]\\@


 THE PROBLEM WITH THE LADDER OF SUCCESS IS YOU CAN'T
 CLIMB IT WHILE YOU'RE TWIDDLING YOUR THUMBS.
 Job cpu time:       0 days  3 hours 51 minutes 50.1 seconds.
 File lengths (MBytes):  RWF=    792 Int=      0 D2E=      0 Chk=     96 Scr=      2
 Normal termination of Gaussian 09 at Fri Sep 14 18:14:02 2018.
