 Entering Gaussian System, Link 0=g09
 Input=Acroleina_water_15_2c.gjf
 Output=Acroleina_water_15_2c.log
 Initial command:
 /usr/local/pacerepov1/gaussian/G09D01LINDA/g09/l1.exe /nv/hp18/holiveira7/scratch/22411863/Gau-9023.inp -scrdir=/nv/hp18/holiveira7/scratch/22411863/
 Entering Link 1 = /usr/local/pacerepov1/gaussian/G09D01LINDA/g09/l1.exe PID=      9024.
  
 Copyright (c) 1988,1990,1992,1993,1995,1998,2003,2009,2013,
            Gaussian, Inc.  All Rights Reserved.
  
 This is part of the Gaussian(R) 09 program.  It is based on
 the Gaussian(R) 03 system (copyright 2003, Gaussian, Inc.),
 the Gaussian(R) 98 system (copyright 1998, Gaussian, Inc.),
 the Gaussian(R) 94 system (copyright 1995, Gaussian, Inc.),
 the Gaussian 92(TM) system (copyright 1992, Gaussian, Inc.),
 the Gaussian 90(TM) system (copyright 1990, Gaussian, Inc.),
 the Gaussian 88(TM) system (copyright 1988, Gaussian, Inc.),
 the Gaussian 86(TM) system (copyright 1986, Carnegie Mellon
 University), and the Gaussian 82(TM) system (copyright 1983,
 Carnegie Mellon University). Gaussian is a federally registered
 trademark of Gaussian, Inc.
  
 This software contains proprietary and confidential information,
 including trade secrets, belonging to Gaussian, Inc.
  
 This software is provided under written license and may be
 used, copied, transmitted, or stored only in accord with that
 written license.
  
 The following legend is applicable only to US Government
 contracts under FAR:
  
                    RESTRICTED RIGHTS LEGEND
  
 Use, reproduction and disclosure by the US Government is
 subject to restrictions as set forth in subparagraphs (a)
 and (c) of the Commercial Computer Software - Restricted
 Rights clause in FAR 52.227-19.
  
 Gaussian, Inc.
 340 Quinnipiac St., Bldg. 40, Wallingford CT 06492
  
  
 ---------------------------------------------------------------
 Warning -- This program may not be used in any manner that
 competes with the business of Gaussian, Inc. or will provide
 assistance to any competitor of Gaussian, Inc.  The licensee
 of this program is prohibited from giving any competitor of
 Gaussian, Inc. access to this program.  By using this program,
 the user acknowledges that Gaussian, Inc. is engaged in the
 business of creating and licensing software in the field of
 computational chemistry and represents and warrants to the
 licensee that it is not a competitor of Gaussian, Inc. and that
 it will not use this program in any manner prohibited above.
 ---------------------------------------------------------------
  

 Cite this work as:
 Gaussian 09, Revision D.01,
 M. J. Frisch, G. W. Trucks, H. B. Schlegel, G. E. Scuseria, 
 M. A. Robb, J. R. Cheeseman, G. Scalmani, V. Barone, B. Mennucci, 
 G. A. Petersson, H. Nakatsuji, M. Caricato, X. Li, H. P. Hratchian, 
 A. F. Izmaylov, J. Bloino, G. Zheng, J. L. Sonnenberg, M. Hada, 
 M. Ehara, K. Toyota, R. Fukuda, J. Hasegawa, M. Ishida, T. Nakajima, 
 Y. Honda, O. Kitao, H. Nakai, T. Vreven, J. A. Montgomery, Jr., 
 J. E. Peralta, F. Ogliaro, M. Bearpark, J. J. Heyd, E. Brothers, 
 K. N. Kudin, V. N. Staroverov, T. Keith, R. Kobayashi, J. Normand, 
 K. Raghavachari, A. Rendell, J. C. Burant, S. S. Iyengar, J. Tomasi, 
 M. Cossi, N. Rega, J. M. Millam, M. Klene, J. E. Knox, J. B. Cross, 
 V. Bakken, C. Adamo, J. Jaramillo, R. Gomperts, R. E. Stratmann, 
 O. Yazyev, A. J. Austin, R. Cammi, C. Pomelli, J. W. Ochterski, 
 R. L. Martin, K. Morokuma, V. G. Zakrzewski, G. A. Voth, 
 P. Salvador, J. J. Dannenberg, S. Dapprich, A. D. Daniels, 
 O. Farkas, J. B. Foresman, J. V. Ortiz, J. Cioslowski, 
 and D. J. Fox, Gaussian, Inc., Wallingford CT, 2013.
 
 ******************************************
 Gaussian 09:  EM64L-G09RevD.01 24-Apr-2013
                14-Sep-2018 
 ******************************************
 %chk=Acrolina_Din_2.chk
 %nprocshared=10
 Will use up to   10 processors via shared memory.
 -------------------------------------------
 #p td=(nstates=15)/6-31+g(d) lc-wpbe charge
 -------------------------------------------
 1/18=10,28=-2,38=1,125=101/1;
 2/12=2,17=6,18=5,40=1/2;
 3/5=1,6=6,7=11,11=9,16=1,25=1,30=1,74=-41/1,2,8,3;
 4//1;
 5/5=2,38=5/2;
 8/6=1,10=2,108=15/1;
 9/41=15,42=1,70=2/14;
 6/7=2,8=2,9=2,10=2/1;
 99/5=1,9=1/99;
 Leave Link    1 at Fri Sep 14 16:57:34 2018, MaxMem=           0 cpu:         2.8
 (Enter /usr/local/pacerepov1/gaussian/G09D01LINDA/g09/l101.exe)
 ------------------
 Acroleina in Water
 ------------------
 Symbolic Z-matrix:
 Charge =  0 Multiplicity = 1
 C                     0.48515   0.48044  -1.43014 
 H                     1.4614    0.18777  -1.05573 
 H                     0.42924   0.87885  -2.43706 
 C                    -0.60513   0.34656  -0.65843 
 H                    -1.59169   0.63289  -1.01241 
 C                    -0.50852  -0.19911   0.7128 
 H                    -1.45849  -0.27211   1.27244 
 O                     0.54488  -0.56132   1.23652 
 O                    -0.18594  -0.97085   2.96193 
 H                     0.05834  -0.42194   2.16252 
 H                     0.28684  -0.61461   3.76792 
 O                     3.06824   1.64833   1.23729 
 H                     2.89282   2.46623   0.68926 
 H                     2.19948   1.26295   1.54837 
 O                     1.17983  -2.95445   2.75962 
 H                     0.5063   -2.21865   2.83051 
 H                     0.78066  -3.80561   3.1005 
 O                     0.57631   4.41047  -0.76252 
 H                     0.944     5.27067  -1.11592 
 H                    -0.40558   4.36692  -0.94705 
 O                     2.74479   3.52217  -0.13107 
 H                     3.42757   3.83758  -0.79011 
 H                     1.84344   3.86587  -0.39469 
 O                    -1.89689   4.51969  -0.96221 
 H                    -2.66658   3.94842  -1.24729 
 H                    -2.0446    4.83416  -0.02449 
 O                    -2.57389  -1.13624   3.76756 
 H                    -2.38759  -1.8098    4.48286 
 H                    -1.71784  -0.88355   3.31661 
 O                     2.90487  -5.22826   1.60023 
 H                     2.10692  -4.6303    1.67637 
 H                     3.35621  -5.29661   2.48998 
 O                     5.2499    1.76928   0.63654 
 H                     5.35041   1.65736  -0.35211 
 H                     4.31957   1.52161   0.9071 
 O                     2.65261  -1.91422   4.39281 
 H                     3.53225  -1.69804   3.96908 
 H                     2.07042  -2.38556   3.73028 
 O                     3.38869   5.20682   1.52635 
 H                     2.98126   4.64276   0.8081 
 H                     3.87729   5.97401   1.11073 
 O                    -1.40967   6.23995  -2.31364 
 H                    -1.59631   5.44827  -1.73187 
 H                    -1.25869   7.04596  -1.74128 
 O                    -2.59654   1.9072   -5.58775 
 H                    -2.25843   2.58615  -4.93599 
 H                    -2.57311   2.29088  -6.51095 
 O                    -2.22088   5.00389   1.40313 
 H                    -3.12631   4.78673   1.76797 
 H                    -1.55641   5.02338   2.15024 
 
 NAtoms=     50 NQM=       50 NQMF=       0 NMMI=      0 NMMIF=      0
                NMic=       0 NMicF=      0.
                    Isotopes and Nuclear Properties:
 (Nuclear quadrupole moments (NQMom) in fm**2, nuclear magnetic moments (NMagM)
  in nuclear magnetons)

  Atom         1           2           3           4           5           6           7           8           9          10
 IAtWgt=          12           1           1          12           1          12           1          16          16           1
 AtmWgt=  12.0000000   1.0078250   1.0078250  12.0000000   1.0078250  12.0000000   1.0078250  15.9949146  15.9949146   1.0078250
 NucSpn=           0           1           1           0           1           0           1           0           0           1
 AtZEff=   0.0000000   0.0000000   0.0000000   0.0000000   0.0000000   0.0000000   0.0000000   0.0000000   0.0000000   0.0000000
 NQMom=    0.0000000   0.0000000   0.0000000   0.0000000   0.0000000   0.0000000   0.0000000   0.0000000   0.0000000   0.0000000
 NMagM=    0.0000000   2.7928460   2.7928460   0.0000000   2.7928460   0.0000000   2.7928460   0.0000000   0.0000000   2.7928460
 AtZNuc=   6.0000000   1.0000000   1.0000000   6.0000000   1.0000000   6.0000000   1.0000000   8.0000000   8.0000000   1.0000000

  Atom        11          12          13          14          15          16          17          18          19          20
 IAtWgt=           1          16           1           1          16           1           1          16           1           1
 AtmWgt=   1.0078250  15.9949146   1.0078250   1.0078250  15.9949146   1.0078250   1.0078250  15.9949146   1.0078250   1.0078250
 NucSpn=           1           0           1           1           0           1           1           0           1           1
 AtZEff=   0.0000000   0.0000000   0.0000000   0.0000000   0.0000000   0.0000000   0.0000000   0.0000000   0.0000000   0.0000000
 NQMom=    0.0000000   0.0000000   0.0000000   0.0000000   0.0000000   0.0000000   0.0000000   0.0000000   0.0000000   0.0000000
 NMagM=    2.7928460   0.0000000   2.7928460   2.7928460   0.0000000   2.7928460   2.7928460   0.0000000   2.7928460   2.7928460
 AtZNuc=   1.0000000   8.0000000   1.0000000   1.0000000   8.0000000   1.0000000   1.0000000   8.0000000   1.0000000   1.0000000

  Atom        21          22          23          24          25          26          27          28          29          30
 IAtWgt=          16           1           1          16           1           1          16           1           1          16
 AtmWgt=  15.9949146   1.0078250   1.0078250  15.9949146   1.0078250   1.0078250  15.9949146   1.0078250   1.0078250  15.9949146
 NucSpn=           0           1           1           0           1           1           0           1           1           0
 AtZEff=   0.0000000   0.0000000   0.0000000   0.0000000   0.0000000   0.0000000   0.0000000   0.0000000   0.0000000   0.0000000
 NQMom=    0.0000000   0.0000000   0.0000000   0.0000000   0.0000000   0.0000000   0.0000000   0.0000000   0.0000000   0.0000000
 NMagM=    0.0000000   2.7928460   2.7928460   0.0000000   2.7928460   2.7928460   0.0000000   2.7928460   2.7928460   0.0000000
 AtZNuc=   8.0000000   1.0000000   1.0000000   8.0000000   1.0000000   1.0000000   8.0000000   1.0000000   1.0000000   8.0000000

  Atom        31          32          33          34          35          36          37          38          39          40
 IAtWgt=           1           1          16           1           1          16           1           1          16           1
 AtmWgt=   1.0078250   1.0078250  15.9949146   1.0078250   1.0078250  15.9949146   1.0078250   1.0078250  15.9949146   1.0078250
 NucSpn=           1           1           0           1           1           0           1           1           0           1
 AtZEff=   0.0000000   0.0000000   0.0000000   0.0000000   0.0000000   0.0000000   0.0000000   0.0000000   0.0000000   0.0000000
 NQMom=    0.0000000   0.0000000   0.0000000   0.0000000   0.0000000   0.0000000   0.0000000   0.0000000   0.0000000   0.0000000
 NMagM=    2.7928460   2.7928460   0.0000000   2.7928460   2.7928460   0.0000000   2.7928460   2.7928460   0.0000000   2.7928460
 AtZNuc=   1.0000000   1.0000000   8.0000000   1.0000000   1.0000000   8.0000000   1.0000000   1.0000000   8.0000000   1.0000000

  Atom        41          42          43          44          45          46          47          48          49          50
 IAtWgt=           1          16           1           1          16           1           1          16           1           1
 AtmWgt=   1.0078250  15.9949146   1.0078250   1.0078250  15.9949146   1.0078250   1.0078250  15.9949146   1.0078250   1.0078250
 NucSpn=           1           0           1           1           0           1           1           0           1           1
 AtZEff=   0.0000000   0.0000000   0.0000000   0.0000000   0.0000000   0.0000000   0.0000000   0.0000000   0.0000000   0.0000000
 NQMom=    0.0000000   0.0000000   0.0000000   0.0000000   0.0000000   0.0000000   0.0000000   0.0000000   0.0000000   0.0000000
 NMagM=    2.7928460   0.0000000   2.7928460   2.7928460   0.0000000   2.7928460   2.7928460   0.0000000   2.7928460   2.7928460
 AtZNuc=   1.0000000   8.0000000   1.0000000   1.0000000   8.0000000   1.0000000   1.0000000   8.0000000   1.0000000   1.0000000
 Background charge distribution read from input stream:
 Point Charges:
 XYZ=    1.1394   -0.6195    5.3684 Q=   -0.8200 A=    0.0000 R=    0.0000 C=    0.0000
 XYZ=    1.6695    0.0012    5.9462 Q=    0.4100 A=    0.0000 R=    0.0000 C=    0.0000
 XYZ=    1.7620   -1.2075    4.8520 Q=    0.4100 A=    0.0000 R=    0.0000 C=    0.0000
 XYZ=   -4.6211   -1.7888    2.7358 Q=   -0.8200 A=    0.0000 R=    0.0000 C=    0.0000
 XYZ=   -3.6890   -1.5415    3.0007 Q=    0.4100 A=    0.0000 R=    0.0000 C=    0.0000
 XYZ=   -4.7305   -2.7814    2.7894 Q=    0.4100 A=    0.0000 R=    0.0000 C=    0.0000
 XYZ=   -1.9025    3.9768   -4.2415 Q=   -0.8200 A=    0.0000 R=    0.0000 C=    0.0000
 XYZ=   -1.4137    4.7700   -3.8783 Q=    0.4100 A=    0.0000 R=    0.0000 C=    0.0000
 XYZ=   -2.8349    3.9657   -3.8801 Q=    0.4100 A=    0.0000 R=    0.0000 C=    0.0000
 XYZ=    0.4082   -5.2863    3.4694 Q=   -0.8200 A=    0.0000 R=    0.0000 C=    0.0000
 XYZ=   -0.0507   -5.9265    2.8533 Q=    0.4100 A=    0.0000 R=    0.0000 C=    0.0000
 XYZ=    1.1185   -5.7685    3.9823 Q=    0.4100 A=    0.0000 R=    0.0000 C=    0.0000
 XYZ=    1.3644    5.4823    3.2988 Q=   -0.8200 A=    0.0000 R=    0.0000 C=    0.0000
 XYZ=    1.1143    6.2814    2.7521 Q=    0.4100 A=    0.0000 R=    0.0000 C=    0.0000
 XYZ=    2.0263    4.9275    2.7946 Q=    0.4100 A=    0.0000 R=    0.0000 C=    0.0000
 XYZ=   -4.5712    0.9491   -5.2917 Q=   -0.8200 A=    0.0000 R=    0.0000 C=    0.0000
 XYZ=   -4.5125    0.0185   -4.9302 Q=    0.4100 A=    0.0000 R=    0.0000 C=    0.0000
 XYZ=   -3.6495    1.3097   -5.4348 Q=    0.4100 A=    0.0000 R=    0.0000 C=    0.0000
 XYZ=   -4.3409    3.6034   -1.1293 Q=   -0.8200 A=    0.0000 R=    0.0000 C=    0.0000
 XYZ=   -4.6989    4.2565   -0.4619 Q=    0.4100 A=    0.0000 R=    0.0000 C=    0.0000
 XYZ=   -4.7390    2.7018   -0.9599 Q=    0.4100 A=    0.0000 R=    0.0000 C=    0.0000
 XYZ=    1.9191    6.2225   -1.6061 Q=   -0.8200 A=    0.0000 R=    0.0000 C=    0.0000
 XYZ=    2.7541    5.7366   -1.8647 Q=    0.4100 A=    0.0000 R=    0.0000 C=    0.0000
 XYZ=    1.4125    6.4764   -2.4301 Q=    0.4100 A=    0.0000 R=    0.0000 C=    0.0000
 XYZ=   -1.0233   -5.2196   -6.2233 Q=   -0.8200 A=    0.0000 R=    0.0000 C=    0.0000
 XYZ=   -0.8877   -4.7725   -5.3392 Q=    0.4100 A=    0.0000 R=    0.0000 C=    0.0000
 XYZ=   -1.6789   -5.9679   -6.1213 Q=    0.4100 A=    0.0000 R=    0.0000 C=    0.0000
 XYZ=   -4.0448    3.9743   -3.4203 Q=   -0.8200 A=    0.0000 R=    0.0000 C=    0.0000
 XYZ=   -4.2568    3.7712   -2.4644 Q=    0.4100 A=    0.0000 R=    0.0000 C=    0.0000
 XYZ=   -4.7741    3.6204   -4.0059 Q=    0.4100 A=    0.0000 R=    0.0000 C=    0.0000
 XYZ=   -6.3357   -0.4413   -0.6700 Q=   -0.8200 A=    0.0000 R=    0.0000 C=    0.0000
 XYZ=   -5.7137   -0.9518   -1.2638 Q=    0.4100 A=    0.0000 R=    0.0000 C=    0.0000
 XYZ=   -6.4868   -0.9549    0.1746 Q=    0.4100 A=    0.0000 R=    0.0000 C=    0.0000
 XYZ=    4.0427    5.0955   -1.4150 Q=   -0.8200 A=    0.0000 R=    0.0000 C=    0.0000
 XYZ=    4.3093    5.8702   -0.8415 Q=    0.4100 A=    0.0000 R=    0.0000 C=    0.0000
 XYZ=    4.8345    4.7801   -1.9381 Q=    0.4100 A=    0.0000 R=    0.0000 C=    0.0000
 XYZ=    4.6005   -5.1577   -0.0224 Q=   -0.8200 A=    0.0000 R=    0.0000 C=    0.0000
 XYZ=    3.8571   -5.1642    0.6464 Q=    0.4100 A=    0.0000 R=    0.0000 C=    0.0000
 XYZ=    4.3450   -5.7181   -0.8103 Q=    0.4100 A=    0.0000 R=    0.0000 C=    0.0000
 XYZ=    2.3866   -7.0404   -0.4640 Q=   -0.8200 A=    0.0000 R=    0.0000 C=    0.0000
 XYZ=    2.5264   -6.2591    0.1443 Q=    0.4100 A=    0.0000 R=    0.0000 C=    0.0000
 XYZ=    3.0705   -7.0216   -1.1933 Q=    0.4100 A=    0.0000 R=    0.0000 C=    0.0000
 XYZ=   -0.6949   -6.8543    2.0916 Q=   -0.8200 A=    0.0000 R=    0.0000 C=    0.0000
 XYZ=   -0.3034   -6.9345    1.1749 Q=    0.4100 A=    0.0000 R=    0.0000 C=    0.0000
 XYZ=   -1.6359   -6.5225    2.0243 Q=    0.4100 A=    0.0000 R=    0.0000 C=    0.0000
 XYZ=   -4.6154   -0.2036    4.5221 Q=   -0.8200 A=    0.0000 R=    0.0000 C=    0.0000
 XYZ=   -3.6421   -0.1451    4.3000 Q=    0.4100 A=    0.0000 R=    0.0000 C=    0.0000
 XYZ=   -5.0823   -0.7557    3.8313 Q=    0.4100 A=    0.0000 R=    0.0000 C=    0.0000
 XYZ=   -1.8032   -5.1963    4.8250 Q=   -0.8200 A=    0.0000 R=    0.0000 C=    0.0000
 XYZ=   -0.9925   -5.3217    4.2530 Q=    0.4100 A=    0.0000 R=    0.0000 C=    0.0000
 XYZ=   -1.8279   -5.9067    5.5284 Q=    0.4100 A=    0.0000 R=    0.0000 C=    0.0000
 XYZ=   -1.4483    7.5186    1.1896 Q=   -0.8200 A=    0.0000 R=    0.0000 C=    0.0000
 XYZ=   -1.8737    8.1331    1.8541 Q=    0.4100 A=    0.0000 R=    0.0000 C=    0.0000
 XYZ=   -1.8143    6.5954    1.3075 Q=    0.4100 A=    0.0000 R=    0.0000 C=    0.0000
 XYZ=    0.0734   -2.2949    6.4286 Q=   -0.8200 A=    0.0000 R=    0.0000 C=    0.0000
 XYZ=    0.5525   -1.4835    6.0935 Q=    0.4100 A=    0.0000 R=    0.0000 C=    0.0000
 XYZ=   -0.6682   -2.5277    5.7993 Q=    0.4100 A=    0.0000 R=    0.0000 C=    0.0000
 XYZ=    4.7755   -1.4604    3.7203 Q=   -0.8200 A=    0.0000 R=    0.0000 C=    0.0000
 XYZ=    5.0547   -0.5436    4.0060 Q=    0.4100 A=    0.0000 R=    0.0000 C=    0.0000
 XYZ=    5.1643   -1.6621    2.8214 Q=    0.4100 A=    0.0000 R=    0.0000 C=    0.0000
 XYZ=    0.0267   -7.4573   -0.0241 Q=   -0.8200 A=    0.0000 R=    0.0000 C=    0.0000
 XYZ=    0.9511   -7.4042   -0.4019 Q=    0.4100 A=    0.0000 R=    0.0000 C=    0.0000
 XYZ=   -0.4669   -8.2122   -0.4559 Q=    0.4100 A=    0.0000 R=    0.0000 C=    0.0000
 XYZ=   -2.2380   -3.0029    5.3470 Q=   -0.8200 A=    0.0000 R=    0.0000 C=    0.0000
 XYZ=   -2.6372   -3.0218    6.2637 Q=    0.4100 A=    0.0000 R=    0.0000 C=    0.0000
 XYZ=   -1.9509   -3.9256    5.0895 Q=    0.4100 A=    0.0000 R=    0.0000 C=    0.0000
 XYZ=    0.7393    6.7205   -3.4873 Q=   -0.8200 A=    0.0000 R=    0.0000 C=    0.0000
 XYZ=   -0.2035    6.5661   -3.1918 Q=    0.4100 A=    0.0000 R=    0.0000 C=    0.0000
 XYZ=    0.9485    6.1221   -4.2607 Q=    0.4100 A=    0.0000 R=    0.0000 C=    0.0000
 XYZ=    2.4747    7.6990    0.0001 Q=   -0.8200 A=    0.0000 R=    0.0000 C=    0.0000
 XYZ=    1.8470    7.7242    0.7783 Q=    0.4100 A=    0.0000 R=    0.0000 C=    0.0000
 XYZ=    2.1572    7.0204   -0.6622 Q=    0.4100 A=    0.0000 R=    0.0000 C=    0.0000
 XYZ=   -0.7333    4.8172   -6.2628 Q=   -0.8200 A=    0.0000 R=    0.0000 C=    0.0000
 XYZ=   -1.1571    4.2521   -5.5550 Q=    0.4100 A=    0.0000 R=    0.0000 C=    0.0000
 XYZ=   -1.4461    5.2618   -6.8054 Q=    0.4100 A=    0.0000 R=    0.0000 C=    0.0000
 XYZ=   -3.3584   -6.3294    1.3637 Q=   -0.8200 A=    0.0000 R=    0.0000 C=    0.0000
 XYZ=   -2.8499   -7.1789    1.2232 Q=    0.4100 A=    0.0000 R=    0.0000 C=    0.0000
 XYZ=   -4.0326   -6.2199    0.6332 Q=    0.4100 A=    0.0000 R=    0.0000 C=    0.0000
 XYZ=   -5.9861    1.9104   -0.9689 Q=   -0.8200 A=    0.0000 R=    0.0000 C=    0.0000
 XYZ=   -6.1309    0.9351   -0.8016 Q=    0.4100 A=    0.0000 R=    0.0000 C=    0.0000
 XYZ=   -6.5962    2.2174   -1.6993 Q=    0.4100 A=    0.0000 R=    0.0000 C=    0.0000
 XYZ=   -4.3401    4.2735    2.0887 Q=   -0.8200 A=    0.0000 R=    0.0000 C=    0.0000
 XYZ=   -4.8310    4.7680    1.3714 Q=    0.4100 A=    0.0000 R=    0.0000 C=    0.0000
 XYZ=   -4.8006    4.4141    2.9652 Q=    0.4100 A=    0.0000 R=    0.0000 C=    0.0000
 XYZ=    6.8964   -0.1606    0.7014 Q=   -0.8200 A=    0.0000 R=    0.0000 C=    0.0000
 XYZ=    6.2235    0.5789    0.7212 Q=    0.4100 A=    0.0000 R=    0.0000 C=    0.0000
 XYZ=    6.5038   -0.9797    1.1198 Q=    0.4100 A=    0.0000 R=    0.0000 C=    0.0000
 XYZ=    2.5179    0.6286    6.8015 Q=   -0.8200 A=    0.0000 R=    0.0000 C=    0.0000
 XYZ=    3.0047   -0.0813    7.3106 Q=    0.4100 A=    0.0000 R=    0.0000 C=    0.0000
 XYZ=    3.1677    1.1406    6.2397 Q=    0.4100 A=    0.0000 R=    0.0000 C=    0.0000
 XYZ=   -5.7615   -4.7757   -4.8144 Q=   -0.8200 A=    0.0000 R=    0.0000 C=    0.0000
 XYZ=   -5.0842   -4.1700   -4.3968 Q=    0.4100 A=    0.0000 R=    0.0000 C=    0.0000
 XYZ=   -6.2552   -4.2808   -5.5295 Q=    0.4100 A=    0.0000 R=    0.0000 C=    0.0000
 XYZ=   -3.8030   -5.5647    3.4314 Q=   -0.8200 A=    0.0000 R=    0.0000 C=    0.0000
 XYZ=   -2.9990   -5.4569    4.0163 Q=    0.4100 A=    0.0000 R=    0.0000 C=    0.0000
 XYZ=   -3.5130   -5.8296    2.5118 Q=    0.4100 A=    0.0000 R=    0.0000 C=    0.0000
 XYZ=    6.3437    3.0585    2.4569 Q=   -0.8200 A=    0.0000 R=    0.0000 C=    0.0000
 XYZ=    5.6902    3.7071    2.8472 Q=    0.4100 A=    0.0000 R=    0.0000 C=    0.0000
 XYZ=    5.9197    2.5805    1.6877 Q=    0.4100 A=    0.0000 R=    0.0000 C=    0.0000
 XYZ=   -5.9471    2.4703    1.5732 Q=   -0.8200 A=    0.0000 R=    0.0000 C=    0.0000
 XYZ=   -5.1233    2.9783    1.8248 Q=    0.4100 A=    0.0000 R=    0.0000 C=    0.0000
 XYZ=   -5.9805    2.3602    0.5799 Q=    0.4100 A=    0.0000 R=    0.0000 C=    0.0000
 XYZ=    0.7071    7.4696    2.0079 Q=   -0.8200 A=    0.0000 R=    0.0000 C=    0.0000
 XYZ=    0.6575    8.1209    2.7651 Q=    0.4100 A=    0.0000 R=    0.0000 C=    0.0000
 XYZ=   -0.1945    7.3817    1.5843 Q=    0.4100 A=    0.0000 R=    0.0000 C=    0.0000
 XYZ=   -6.3201   -4.2727    0.8559 Q=   -0.8200 A=    0.0000 R=    0.0000 C=    0.0000
 XYZ=   -5.6393   -4.8535    0.4095 Q=    0.4100 A=    0.0000 R=    0.0000 C=    0.0000
 XYZ=   -6.0951   -4.1809    1.8260 Q=    0.4100 A=    0.0000 R=    0.0000 C=    0.0000
 XYZ=    4.0231    2.2714    5.6164 Q=   -0.8200 A=    0.0000 R=    0.0000 C=    0.0000
 XYZ=    4.3982    2.1983    6.5405 Q=    0.4100 A=    0.0000 R=    0.0000 C=    0.0000
 XYZ=    4.0483    3.2265    5.3211 Q=    0.4100 A=    0.0000 R=    0.0000 C=    0.0000
 XYZ=    5.0060    4.7406    3.2484 Q=   -0.8200 A=    0.0000 R=    0.0000 C=    0.0000
 XYZ=    4.5920    4.6903    4.1574 Q=    0.4100 A=    0.0000 R=    0.0000 C=    0.0000
 XYZ=    4.2971    4.9323    2.5696 Q=    0.4100 A=    0.0000 R=    0.0000 C=    0.0000
 XYZ=   -4.9694   -6.2334   -0.5045 Q=   -0.8200 A=    0.0000 R=    0.0000 C=    0.0000
 XYZ=   -5.2950   -6.0829   -1.4380 Q=    0.4100 A=    0.0000 R=    0.0000 C=    0.0000
 XYZ=   -4.8465   -7.2135   -0.3484 Q=    0.4100 A=    0.0000 R=    0.0000 C=    0.0000
 XYZ=    6.0158   -2.2150    1.6440 Q=   -0.8200 A=    0.0000 R=    0.0000 C=    0.0000
 XYZ=    5.7970   -2.4231    0.6907 Q=    0.4100 A=    0.0000 R=    0.0000 C=    0.0000
 XYZ=    6.3291   -3.0463    2.1032 Q=    0.4100 A=    0.0000 R=    0.0000 C=    0.0000
 XYZ=   -5.6428    3.0251   -4.7644 Q=   -0.8200 A=    0.0000 R=    0.0000 C=    0.0000
 XYZ=   -5.8399    3.5748   -5.5761 Q=    0.4100 A=    0.0000 R=    0.0000 C=    0.0000
 XYZ=   -5.2772    2.1372   -5.0439 Q=    0.4100 A=    0.0000 R=    0.0000 C=    0.0000
 XYZ=   -3.6532    6.5484   -3.0382 Q=   -0.8200 A=    0.0000 R=    0.0000 C=    0.0000
 XYZ=   -2.7134    6.5080   -2.6988 Q=    0.4100 A=    0.0000 R=    0.0000 C=    0.0000
 XYZ=   -3.8943    5.6727   -3.4567 Q=    0.4100 A=    0.0000 R=    0.0000 C=    0.0000
 XYZ=   -6.4570   -1.9460    1.1210 Q=   -0.8200 A=    0.0000 R=    0.0000 C=    0.0000
 XYZ=   -5.8026   -1.8253    1.8674 Q=    0.4100 A=    0.0000 R=    0.0000 C=    0.0000
 XYZ=   -6.4863   -2.9099    0.8561 Q=    0.4100 A=    0.0000 R=    0.0000 C=    0.0000
 XYZ=    4.3712   -1.4163   -4.5003 Q=   -0.8200 A=    0.0000 R=    0.0000 C=    0.0000
 XYZ=    4.0107   -1.1704   -5.4001 Q=    0.4100 A=    0.0000 R=    0.0000 C=    0.0000
 XYZ=    4.7469   -0.6020   -4.0579 Q=    0.4100 A=    0.0000 R=    0.0000 C=    0.0000
 XYZ=    3.2937   -0.6231   -6.6532 Q=   -0.8200 A=    0.0000 R=    0.0000 C=    0.0000
 XYZ=    3.4712    0.2176   -7.1648 Q=    0.4100 A=    0.0000 R=    0.0000 C=    0.0000
 XYZ=    2.3534   -0.9211   -6.8179 Q=    0.4100 A=    0.0000 R=    0.0000 C=    0.0000
 XYZ=    5.7591    0.7555    4.8815 Q=   -0.8200 A=    0.0000 R=    0.0000 C=    0.0000
 XYZ=    6.1027    0.2292    5.6594 Q=    0.4100 A=    0.0000 R=    0.0000 C=    0.0000
 XYZ=    4.9963    1.3298    5.1787 Q=    0.4100 A=    0.0000 R=    0.0000 C=    0.0000
 XYZ=    6.0208    1.7719   -1.8168 Q=   -0.8200 A=    0.0000 R=    0.0000 C=    0.0000
 XYZ=    5.8198    2.6998   -2.1310 Q=    0.4100 A=    0.0000 R=    0.0000 C=    0.0000
 XYZ=    5.9194    1.1326   -2.5791 Q=    0.4100 A=    0.0000 R=    0.0000 C=    0.0000
 XYZ=    6.1825   -3.4428   -0.5184 Q=   -0.8200 A=    0.0000 R=    0.0000 C=    0.0000
 XYZ=    5.4251   -4.0951   -0.4911 Q=    0.4100 A=    0.0000 R=    0.0000 C=    0.0000
 XYZ=    7.0465   -3.9296   -0.3895 Q=    0.4100 A=    0.0000 R=    0.0000 C=    0.0000
 XYZ=    3.4351   -3.0861    6.5007 Q=   -0.8200 A=    0.0000 R=    0.0000 C=    0.0000
 XYZ=    3.1177   -2.7327    5.6207 Q=    0.4100 A=    0.0000 R=    0.0000 C=    0.0000
 XYZ=    3.5838   -2.3246    7.1316 Q=    0.4100 A=    0.0000 R=    0.0000 C=    0.0000
 XYZ=   -5.3788   -3.9865    3.1447 Q=   -0.8200 A=    0.0000 R=    0.0000 C=    0.0000
 XYZ=   -5.6979   -3.7469    4.0617 Q=    0.4100 A=    0.0000 R=    0.0000 C=    0.0000
 XYZ=   -4.7176   -4.7342    3.2067 Q=    0.4100 A=    0.0000 R=    0.0000 C=    0.0000
 XYZ=    2.1120    5.9019    5.3935 Q=   -0.8200 A=    0.0000 R=    0.0000 C=    0.0000
 XYZ=    1.6493    5.7311    4.5236 Q=    0.4100 A=    0.0000 R=    0.0000 C=    0.0000
 XYZ=    1.5532    5.5476    6.1434 Q=    0.4100 A=    0.0000 R=    0.0000 C=    0.0000
 XYZ=   -0.9836    8.3086   -1.0065 Q=   -0.8200 A=    0.0000 R=    0.0000 C=    0.0000
 XYZ=   -0.0876    8.7512   -1.0441 Q=    0.4100 A=    0.0000 R=    0.0000 C=    0.0000
 XYZ=   -1.1736    8.0199   -0.0681 Q=    0.4100 A=    0.0000 R=    0.0000 C=    0.0000
 XYZ=    1.2664    5.4792   -5.3234 Q=   -0.8200 A=    0.0000 R=    0.0000 C=    0.0000
 XYZ=    0.4581    5.2827   -5.8784 Q=    0.4100 A=    0.0000 R=    0.0000 C=    0.0000
 XYZ=    2.0075    4.8601   -5.5832 Q=    0.4100 A=    0.0000 R=    0.0000 C=    0.0000
 XYZ=    3.9711   -5.4104    3.5540 Q=   -0.8200 A=    0.0000 R=    0.0000 C=    0.0000
 XYZ=    3.3856   -5.9353    4.1717 Q=    0.4100 A=    0.0000 R=    0.0000 C=    0.0000
 XYZ=    4.3653   -4.6349    4.0472 Q=    0.4100 A=    0.0000 R=    0.0000 C=    0.0000
 XYZ=    5.3093   -3.4730    4.7327 Q=   -0.8200 A=    0.0000 R=    0.0000 C=    0.0000
 XYZ=    5.0463   -2.5712    4.3898 Q=    0.4100 A=    0.0000 R=    0.0000 C=    0.0000
 XYZ=    5.1460   -3.5154    5.7184 Q=    0.4100 A=    0.0000 R=    0.0000 C=    0.0000
 XYZ=    1.4161   -4.3233    6.6940 Q=   -0.8200 A=    0.0000 R=    0.0000 C=    0.0000
 XYZ=    2.3513   -3.9693    6.7073 Q=    0.4100 A=    0.0000 R=    0.0000 C=    0.0000
 XYZ=    0.7764   -3.5692    6.5452 Q=    0.4100 A=    0.0000 R=    0.0000 C=    0.0000
 XYZ=   -6.9808    2.6623   -2.9926 Q=   -0.8200 A=    0.0000 R=    0.0000 C=    0.0000
 XYZ=   -6.3116    2.8250   -3.7177 Q=    0.4100 A=    0.0000 R=    0.0000 C=    0.0000
 XYZ=   -7.7669    2.1716   -3.3687 Q=    0.4100 A=    0.0000 R=    0.0000 C=    0.0000
 XYZ=   -5.1317    1.7837   -7.5480 Q=   -0.8200 A=    0.0000 R=    0.0000 C=    0.0000
 XYZ=   -5.9329    1.3662   -7.9767 Q=    0.4100 A=    0.0000 R=    0.0000 C=    0.0000
 XYZ=   -4.8386    1.2236   -6.7732 Q=    0.4100 A=    0.0000 R=    0.0000 C=    0.0000
 XYZ=    5.8331   -3.1766   -3.9981 Q=   -0.8200 A=    0.0000 R=    0.0000 C=    0.0000
 XYZ=    6.4062   -2.8788   -3.2346 Q=    0.4100 A=    0.0000 R=    0.0000 C=    0.0000
 XYZ=    5.1077   -2.5056   -4.1518 Q=    0.4100 A=    0.0000 R=    0.0000 C=    0.0000
 XYZ=    2.0407   -6.1874    5.0280 Q=   -0.8200 A=    0.0000 R=    0.0000 C=    0.0000
 XYZ=    1.3570   -6.8154    5.3996 Q=    0.4100 A=    0.0000 R=    0.0000 C=    0.0000
 XYZ=    2.0489   -5.3459    5.5684 Q=    0.4100 A=    0.0000 R=    0.0000 C=    0.0000
 XYZ=    4.7004    6.7207    0.0150 Q=   -0.8200 A=    0.0000 R=    0.0000 C=    0.0000
 XYZ=    3.9507    7.3661    0.1617 Q=    0.4100 A=    0.0000 R=    0.0000 C=    0.0000
 XYZ=    5.5742    7.1936    0.1281 Q=    0.4100 A=    0.0000 R=    0.0000 C=    0.0000
 XYZ=    5.8844    4.1977   -2.7064 Q=   -0.8200 A=    0.0000 R=    0.0000 C=    0.0000
 XYZ=    6.7881    4.4806   -2.3847 Q=    0.4100 A=    0.0000 R=    0.0000 C=    0.0000
 XYZ=    5.8475    4.2708   -3.7030 Q=    0.4100 A=    0.0000 R=    0.0000 C=    0.0000
 XYZ=   -5.5974    5.3567    0.2699 Q=   -0.8200 A=    0.0000 R=    0.0000 C=    0.0000
 XYZ=   -5.6752    5.9546   -0.5279 Q=    0.4100 A=    0.0000 R=    0.0000 C=    0.0000
 XYZ=   -6.5113    5.1234    0.6020 Q=    0.4100 A=    0.0000 R=    0.0000 C=    0.0000
 XYZ=    4.2956   -6.5576   -1.8348 Q=   -0.8200 A=    0.0000 R=    0.0000 C=    0.0000
 XYZ=    5.0349   -7.1328   -1.4844 Q=    0.4100 A=    0.0000 R=    0.0000 C=    0.0000
 XYZ=    4.5842   -6.1288   -2.6908 Q=    0.4100 A=    0.0000 R=    0.0000 C=    0.0000
 XYZ=    1.7635    2.1163    8.4142 Q=   -0.8200 A=    0.0000 R=    0.0000 C=    0.0000
 XYZ=    2.0033    1.4537    7.7047 Q=    0.4100 A=    0.0000 R=    0.0000 C=    0.0000
 XYZ=    0.7903    2.0363    8.6298 Q=    0.4100 A=    0.0000 R=    0.0000 C=    0.0000
 XYZ=   -0.2195   -8.6930    3.5852 Q=   -0.8200 A=    0.0000 R=    0.0000 C=    0.0000
 XYZ=    0.6342   -9.1601    3.3548 Q=    0.4100 A=    0.0000 R=    0.0000 C=    0.0000
 XYZ=   -0.4292   -8.0151    2.8806 Q=    0.4100 A=    0.0000 R=    0.0000 C=    0.0000
 XYZ=   -6.0932   -6.2089   -2.6934 Q=   -0.8200 A=    0.0000 R=    0.0000 C=    0.0000
 XYZ=   -7.0215   -6.2422   -2.3229 Q=    0.4100 A=    0.0000 R=    0.0000 C=    0.0000
 XYZ=   -6.1018   -5.7304   -3.5715 Q=    0.4100 A=    0.0000 R=    0.0000 C=    0.0000
 XYZ=    6.8598   -2.0228   -2.2041 Q=   -0.8200 A=    0.0000 R=    0.0000 C=    0.0000
 XYZ=    7.7725   -1.6652   -2.0065 Q=    0.4100 A=    0.0000 R=    0.0000 C=    0.0000
 XYZ=    6.4897   -2.4625   -1.3857 Q=    0.4100 A=    0.0000 R=    0.0000 C=    0.0000
 XYZ=    5.7398   -6.1228    1.8813 Q=   -0.8200 A=    0.0000 R=    0.0000 C=    0.0000
 XYZ=    5.4829   -5.8611    0.9510 Q=    0.4100 A=    0.0000 R=    0.0000 C=    0.0000
 XYZ=    4.9675   -5.9659    2.4970 Q=    0.4100 A=    0.0000 R=    0.0000 C=    0.0000
 XYZ=   -2.4523   -7.0553   -5.8352 Q=   -0.8200 A=    0.0000 R=    0.0000 C=    0.0000
 XYZ=   -2.4644   -7.4616   -6.7489 Q=    0.4100 A=    0.0000 R=    0.0000 C=    0.0000
 XYZ=   -3.3909   -6.8998   -5.5272 Q=    0.4100 A=    0.0000 R=    0.0000 C=    0.0000
 XYZ=    4.2581    4.7240    5.3412 Q=   -0.8200 A=    0.0000 R=    0.0000 C=    0.0000
 XYZ=    5.0503    5.0199    5.8751 Q=    0.4100 A=    0.0000 R=    0.0000 C=    0.0000
 XYZ=    3.4684    5.2915    5.5743 Q=    0.4100 A=    0.0000 R=    0.0000 C=    0.0000
 XYZ=    1.1834    9.3598   -1.0729 Q=   -0.8200 A=    0.0000 R=    0.0000 C=    0.0000
 XYZ=    1.0667    9.2212   -2.0564 Q=    0.4100 A=    0.0000 R=    0.0000 C=    0.0000
 XYZ=    1.7928    8.6564   -0.7071 Q=    0.4100 A=    0.0000 R=    0.0000 C=    0.0000
 XYZ=   -2.7087   -8.5326    0.8878 Q=   -0.8200 A=    0.0000 R=    0.0000 C=    0.0000
 XYZ=   -3.6296   -8.6772    0.5260 Q=    0.4100 A=    0.0000 R=    0.0000 C=    0.0000
 XYZ=   -2.0379   -8.9264    0.2593 Q=    0.4100 A=    0.0000 R=    0.0000 C=    0.0000
 XYZ=   -3.0211    2.8708   -7.8519 Q=   -0.8200 A=    0.0000 R=    0.0000 C=    0.0000
 XYZ=   -3.9613    2.5426   -7.9432 Q=    0.4100 A=    0.0000 R=    0.0000 C=    0.0000
 XYZ=   -3.0234    3.8662   -7.7559 Q=    0.4100 A=    0.0000 R=    0.0000 C=    0.0000
 XYZ=   -5.2071   -1.9031    6.0848 Q=   -0.8200 A=    0.0000 R=    0.0000 C=    0.0000
 XYZ=   -4.7751   -1.1924    5.5296 Q=    0.4100 A=    0.0000 R=    0.0000 C=    0.0000
 XYZ=   -4.5093   -2.3751    6.6237 Q=    0.4100 A=    0.0000 R=    0.0000 C=    0.0000
 XYZ=    6.1699    0.0539   -3.3844 Q=   -0.8200 A=    0.0000 R=    0.0000 C=    0.0000
 XYZ=    6.8186    0.1683   -4.1368 Q=    0.4100 A=    0.0000 R=    0.0000 C=    0.0000
 XYZ=    6.4410   -0.7309   -2.8271 Q=    0.4100 A=    0.0000 R=    0.0000 C=    0.0000
 XYZ=    3.5313    4.5886   -5.8109 Q=   -0.8200 A=    0.0000 R=    0.0000 C=    0.0000
 XYZ=    4.5057    4.3910   -5.7026 Q=    0.4100 A=    0.0000 R=    0.0000 C=    0.0000
 XYZ=    3.3993    5.5760   -5.8988 Q=    0.4100 A=    0.0000 R=    0.0000 C=    0.0000
 XYZ=    7.6260    1.5334    3.7174 Q=   -0.8200 A=    0.0000 R=    0.0000 C=    0.0000
 XYZ=    7.1995    2.0537    2.9775 Q=    0.4100 A=    0.0000 R=    0.0000 C=    0.0000
 XYZ=    6.9185    1.0637    4.2454 Q=    0.4100 A=    0.0000 R=    0.0000 C=    0.0000
 XYZ=   -6.3964    1.4005    5.0799 Q=   -0.8200 A=    0.0000 R=    0.0000 C=    0.0000
 XYZ=   -5.4492    1.1480    4.8821 Q=    0.4100 A=    0.0000 R=    0.0000 C=    0.0000
 XYZ=   -6.9263    0.5762    5.2792 Q=    0.4100 A=    0.0000 R=    0.0000 C=    0.0000
 XYZ=   -1.4553   -5.7919   -8.4244 Q=   -0.8200 A=    0.0000 R=    0.0000 C=    0.0000
 XYZ=   -0.6902   -5.6021   -9.0397 Q=    0.4100 A=    0.0000 R=    0.0000 C=    0.0000
 XYZ=   -1.2809   -5.3686   -7.5353 Q=    0.4100 A=    0.0000 R=    0.0000 C=    0.0000
 XYZ=    5.2803   -5.4464   -3.8428 Q=   -0.8200 A=    0.0000 R=    0.0000 C=    0.0000
 XYZ=    5.4750   -4.4782   -3.6858 Q=    0.4100 A=    0.0000 R=    0.0000 C=    0.0000
 XYZ=    4.8630   -5.5605   -4.7444 Q=    0.4100 A=    0.0000 R=    0.0000 C=    0.0000
 XYZ=   -4.7559   -6.7915   -5.4761 Q=   -0.8200 A=    0.0000 R=    0.0000 C=    0.0000
 XYZ=   -5.2134   -5.9189   -5.3052 Q=    0.4100 A=    0.0000 R=    0.0000 C=    0.0000
 XYZ=   -4.9227   -7.4112   -4.7092 Q=    0.4100 A=    0.0000 R=    0.0000 C=    0.0000
 XYZ=   -1.3327   -1.9788    8.4033 Q=   -0.8200 A=    0.0000 R=    0.0000 C=    0.0000
 XYZ=   -0.7337   -2.2092    7.6364 Q=    0.4100 A=    0.0000 R=    0.0000 C=    0.0000
 XYZ=   -0.9850   -2.4061    9.2378 Q=    0.4100 A=    0.0000 R=    0.0000 C=    0.0000
 XYZ=    7.9628    1.0103   -0.9371 Q=   -0.8200 A=    0.0000 R=    0.0000 C=    0.0000
 XYZ=    7.1780    1.3912   -1.4260 Q=    0.4100 A=    0.0000 R=    0.0000 C=    0.0000
 XYZ=    7.6425    0.4986   -0.1399 Q=    0.4100 A=    0.0000 R=    0.0000 C=    0.0000
 XYZ=    0.4482    9.1714   -3.4090 Q=   -0.8200 A=    0.0000 R=    0.0000 C=    0.0000
 XYZ=   -0.3971    9.6114   -3.7120 Q=    0.4100 A=    0.0000 R=    0.0000 C=    0.0000
 XYZ=    0.4697    8.2278   -3.7393 Q=    0.4100 A=    0.0000 R=    0.0000 C=    0.0000
 XYZ=   -5.7211    6.5898   -1.7160 Q=   -0.8200 A=    0.0000 R=    0.0000 C=    0.0000
 XYZ=   -4.8898    6.6915   -2.2625 Q=    0.4100 A=    0.0000 R=    0.0000 C=    0.0000
 XYZ=   -5.9178    7.4500   -1.2453 Q=    0.4100 A=    0.0000 R=    0.0000 C=    0.0000
 XYZ=    0.8687    4.0295   -8.5346 Q=   -0.8200 A=    0.0000 R=    0.0000 C=    0.0000
 XYZ=    0.3904    4.3603   -7.7210 Q=    0.4100 A=    0.0000 R=    0.0000 C=    0.0000
 XYZ=    1.8052    3.7773   -8.2910 Q=    0.4100 A=    0.0000 R=    0.0000 C=    0.0000
 XYZ=   -1.1411   -9.4618   -0.8105 Q=   -0.8200 A=    0.0000 R=    0.0000 C=    0.0000
 XYZ=   -0.3476  -10.0244   -0.5783 Q=    0.4100 A=    0.0000 R=    0.0000 C=    0.0000
 XYZ=   -1.7334   -9.9647   -1.4399 Q=    0.4100 A=    0.0000 R=    0.0000 C=    0.0000
 XYZ=   -7.3242    1.1849    3.0137 Q=   -0.8200 A=    0.0000 R=    0.0000 C=    0.0000
 XYZ=   -6.7982    1.6203    2.2831 Q=    0.4100 A=    0.0000 R=    0.0000 C=    0.0000
 XYZ=   -6.9930    1.5073    3.9005 Q=    0.4100 A=    0.0000 R=    0.0000 C=    0.0000
 XYZ=    6.6966   -4.3318    2.7688 Q=   -0.8200 A=    0.0000 R=    0.0000 C=    0.0000
 XYZ=    6.1846   -4.1177    3.6007 Q=    0.4100 A=    0.0000 R=    0.0000 C=    0.0000
 XYZ=    6.4339   -5.2389    2.4400 Q=    0.4100 A=    0.0000 R=    0.0000 C=    0.0000
 XYZ=   -7.3611    4.4192    1.5341 Q=   -0.8200 A=    0.0000 R=    0.0000 C=    0.0000
 XYZ=   -6.7985    3.5975    1.6253 Q=    0.4100 A=    0.0000 R=    0.0000 C=    0.0000
 XYZ=   -8.3230    4.1811    1.6686 Q=    0.4100 A=    0.0000 R=    0.0000 C=    0.0000
 XYZ=   -5.3220   -8.3389   -3.4498 Q=   -0.8200 A=    0.0000 R=    0.0000 C=    0.0000
 XYZ=   -5.6308   -7.4573   -3.0928 Q=    0.4100 A=    0.0000 R=    0.0000 C=    0.0000
 XYZ=   -6.1089   -8.9443   -3.5692 Q=    0.4100 A=    0.0000 R=    0.0000 C=    0.0000
 XYZ=    2.9249    3.5623   -7.7795 Q=   -0.8200 A=    0.0000 R=    0.0000 C=    0.0000
 XYZ=    3.1930    3.9914   -6.9169 Q=    0.4100 A=    0.0000 R=    0.0000 C=    0.0000
 XYZ=    3.3470    2.6582   -7.8474 Q=    0.4100 A=    0.0000 R=    0.0000 C=    0.0000
 XYZ=   -5.1334   -6.9332    4.7949 Q=   -0.8200 A=    0.0000 R=    0.0000 C=    0.0000
 XYZ=   -4.4771   -6.5018    4.1758 Q=    0.4100 A=    0.0000 R=    0.0000 C=    0.0000
 XYZ=   -5.8381   -6.2704    5.0481 Q=    0.4100 A=    0.0000 R=    0.0000 C=    0.0000
 XYZ=   -8.1669   -0.8805    2.4539 Q=   -0.8200 A=    0.0000 R=    0.0000 C=    0.0000
 XYZ=   -7.5586   -1.3368    1.8045 Q=    0.4100 A=    0.0000 R=    0.0000 C=    0.0000
 XYZ=   -7.8172    0.0355    2.6510 Q=    0.4100 A=    0.0000 R=    0.0000 C=    0.0000
 XYZ=    0.8511    5.3833    7.8864 Q=   -0.8200 A=    0.0000 R=    0.0000 C=    0.0000
 XYZ=    1.3563    5.6739    8.6991 Q=    0.4100 A=    0.0000 R=    0.0000 C=    0.0000
 XYZ=    1.1760    4.4832    7.5962 Q=    0.4100 A=    0.0000 R=    0.0000 C=    0.0000
 XYZ=    3.9377   -1.1783    7.6739 Q=   -0.8200 A=    0.0000 R=    0.0000 C=    0.0000
 XYZ=    3.9671   -1.1731    8.6734 Q=    0.4100 A=    0.0000 R=    0.0000 C=    0.0000
 XYZ=    4.8313   -0.9116    7.3128 Q=    0.4100 A=    0.0000 R=    0.0000 C=    0.0000
 XYZ=    8.7979   -0.0587    2.2303 Q=   -0.8200 A=    0.0000 R=    0.0000 C=    0.0000
 XYZ=    8.4955    0.5966    2.9224 Q=    0.4100 A=    0.0000 R=    0.0000 C=    0.0000
 XYZ=    8.0558   -0.2234    1.5804 Q=    0.4100 A=    0.0000 R=    0.0000 C=    0.0000
 XYZ=    5.1004   -1.7243   -7.7918 Q=   -0.8200 A=    0.0000 R=    0.0000 C=    0.0000
 XYZ=    5.2835   -2.5771   -7.3025 Q=    0.4100 A=    0.0000 R=    0.0000 C=    0.0000
 XYZ=    4.3374   -1.2471   -7.3557 Q=    0.4100 A=    0.0000 R=    0.0000 C=    0.0000
 XYZ=   -7.6662   -6.0345    1.7657 Q=   -0.8200 A=    0.0000 R=    0.0000 C=    0.0000
 XYZ=   -8.4641   -6.2412    1.1994 Q=    0.4100 A=    0.0000 R=    0.0000 C=    0.0000
 XYZ=   -7.2338   -5.1943    1.4383 Q=    0.4100 A=    0.0000 R=    0.0000 C=    0.0000
 XYZ=   -2.6997    9.6443   -1.9786 Q=   -0.8200 A=    0.0000 R=    0.0000 C=    0.0000
 XYZ=   -3.3910    9.9720   -1.3346 Q=    0.4100 A=    0.0000 R=    0.0000 C=    0.0000
 XYZ=   -1.9880    9.1491   -1.4801 Q=    0.4100 A=    0.0000 R=    0.0000 C=    0.0000
 XYZ=   -5.2321    4.9307    4.2675 Q=   -0.8200 A=    0.0000 R=    0.0000 C=    0.0000
 XYZ=   -5.9782    5.4212    3.8171 Q=    0.4100 A=    0.0000 R=    0.0000 C=    0.0000
 XYZ=   -5.6099    4.2065    4.8444 Q=    0.4100 A=    0.0000 R=    0.0000 C=    0.0000
 XYZ=    8.2263    4.1185    3.2168 Q=   -0.8200 A=    0.0000 R=    0.0000 C=    0.0000
 XYZ=    8.4487    3.7172    4.1054 Q=    0.4100 A=    0.0000 R=    0.0000 C=    0.0000
 XYZ=    7.4587    3.6232    2.8101 Q=    0.4100 A=    0.0000 R=    0.0000 C=    0.0000
 XYZ=   -7.7168    4.8502   -2.6321 Q=   -0.8200 A=    0.0000 R=    0.0000 C=    0.0000
 XYZ=   -6.9266    5.4332   -2.4427 Q=    0.4100 A=    0.0000 R=    0.0000 C=    0.0000
 XYZ=   -7.4053    3.9206   -2.8297 Q=    0.4100 A=    0.0000 R=    0.0000 C=    0.0000
 XYZ=   -3.7319    8.6294   -3.8288 Q=   -0.8200 A=    0.0000 R=    0.0000 C=    0.0000
 XYZ=   -3.5366    9.0574   -2.9464 Q=    0.4100 A=    0.0000 R=    0.0000 C=    0.0000
 XYZ=   -3.8032    7.6390   -3.7103 Q=    0.4100 A=    0.0000 R=    0.0000 C=    0.0000
 XYZ=   -1.4071   -9.2347   -5.8591 Q=   -0.8200 A=    0.0000 R=    0.0000 C=    0.0000
 XYZ=   -2.0241   -8.5469   -5.4766 Q=    0.4100 A=    0.0000 R=    0.0000 C=    0.0000
 XYZ=   -1.6901   -9.4537   -6.7929 Q=    0.4100 A=    0.0000 R=    0.0000 C=    0.0000
 XYZ=    3.6925    1.2785   -8.1677 Q=   -0.8200 A=    0.0000 R=    0.0000 C=    0.0000
 XYZ=    4.6857    1.3943   -8.1538 Q=    0.4100 A=    0.0000 R=    0.0000 C=    0.0000
 XYZ=    3.3693    1.2863   -9.1141 Q=    0.4100 A=    0.0000 R=    0.0000 C=    0.0000
 XYZ=   -5.7533    3.8779   -6.9293 Q=   -0.8200 A=    0.0000 R=    0.0000 C=    0.0000
 XYZ=   -5.5406    4.4986   -7.6840 Q=    0.4100 A=    0.0000 R=    0.0000 C=    0.0000
 XYZ=   -5.6056    2.9334   -7.2229 Q=    0.4100 A=    0.0000 R=    0.0000 C=    0.0000
 XYZ=   -4.9845   -8.5900    0.0911 Q=   -0.8200 A=    0.0000 R=    0.0000 C=    0.0000
 XYZ=   -5.7543   -8.5736    0.7292 Q=    0.4100 A=    0.0000 R=    0.0000 C=    0.0000
 XYZ=   -5.1003   -9.3476   -0.5514 Q=    0.4100 A=    0.0000 R=    0.0000 C=    0.0000
 XYZ=   -6.7100   -3.4416    4.9542 Q=   -0.8200 A=    0.0000 R=    0.0000 C=    0.0000
 XYZ=   -7.5321   -2.9267    4.7113 Q=    0.4100 A=    0.0000 R=    0.0000 C=    0.0000
 XYZ=   -6.0256   -2.8180    5.3320 Q=    0.4100 A=    0.0000 R=    0.0000 C=    0.0000
 XYZ=   -2.3109    2.6345  -10.0835 Q=   -0.8200 A=    0.0000 R=    0.0000 C=    0.0000
 XYZ=   -2.4231    2.6111   -9.0900 Q=    0.4100 A=    0.0000 R=    0.0000 C=    0.0000
 XYZ=   -2.2462    1.7000  -10.4336 Q=    0.4100 A=    0.0000 R=    0.0000 C=    0.0000
 XYZ=   -1.3230   -1.5110   -9.9948 Q=   -0.8200 A=    0.0000 R=    0.0000 C=    0.0000
 XYZ=   -1.0691   -2.3633  -10.4520 Q=    0.4100 A=    0.0000 R=    0.0000 C=    0.0000
 XYZ=   -2.0600   -1.6894   -9.3427 Q=    0.4100 A=    0.0000 R=    0.0000 C=    0.0000
 XYZ=    0.3409   -7.6960    5.7363 Q=   -0.8200 A=    0.0000 R=    0.0000 C=    0.0000
 XYZ=   -0.4662   -7.3617    6.2230 Q=    0.4100 A=    0.0000 R=    0.0000 C=    0.0000
 XYZ=    0.0534   -8.2177    4.9330 Q=    0.4100 A=    0.0000 R=    0.0000 C=    0.0000
 XYZ=   -6.1884    7.8081    1.7172 Q=   -0.8200 A=    0.0000 R=    0.0000 C=    0.0000
 XYZ=   -6.7806    7.5427    2.4781 Q=    0.4100 A=    0.0000 R=    0.0000 C=    0.0000
 XYZ=   -5.3850    7.2130    1.6970 Q=    0.4100 A=    0.0000 R=    0.0000 C=    0.0000
 XYZ=    5.8919   -3.5687   -6.4542 Q=   -0.8200 A=    0.0000 R=    0.0000 C=    0.0000
 XYZ=    5.8373   -3.4248   -5.4661 Q=    0.4100 A=    0.0000 R=    0.0000 C=    0.0000
 XYZ=    6.8208   -3.8458   -6.6998 Q=    0.4100 A=    0.0000 R=    0.0000 C=    0.0000
 XYZ=   -2.1862   -9.9694    2.6122 Q=   -0.8200 A=    0.0000 R=    0.0000 C=    0.0000
 XYZ=   -1.3485   -9.5947    3.0096 Q=    0.4100 A=    0.0000 R=    0.0000 C=    0.0000
 XYZ=   -2.5863   -9.3002    1.9860 Q=    0.4100 A=    0.0000 R=    0.0000 C=    0.0000
 XYZ=    7.1833    6.2237    2.7925 Q=   -0.8200 A=    0.0000 R=    0.0000 C=    0.0000
 XYZ=    6.2654    5.9350    3.0649 Q=    0.4100 A=    0.0000 R=    0.0000 C=    0.0000
 XYZ=    7.8168    5.4561    2.8902 Q=    0.4100 A=    0.0000 R=    0.0000 C=    0.0000
 XYZ=   -3.3906   -2.9134    7.6405 Q=   -0.8200 A=    0.0000 R=    0.0000 C=    0.0000
 XYZ=   -2.5528   -2.5361    8.0353 Q=    0.4100 A=    0.0000 R=    0.0000 C=    0.0000
 XYZ=   -3.6178   -3.7724    8.0993 Q=    0.4100 A=    0.0000 R=    0.0000 C=    0.0000
 XYZ=   -1.9954    0.4343    8.9785 Q=   -0.8200 A=    0.0000 R=    0.0000 C=    0.0000
 XYZ=   -1.6537   -0.4964    8.8478 Q=    0.4100 A=    0.0000 R=    0.0000 C=    0.0000
 XYZ=   -2.9954    0.4250    8.9803 Q=    0.4100 A=    0.0000 R=    0.0000 C=    0.0000
 XYZ=   -2.0586    8.9868    2.8790 Q=   -0.8200 A=    0.0000 R=    0.0000 C=    0.0000
 XYZ=   -2.6007    8.5535    3.5991 Q=    0.4100 A=    0.0000 R=    0.0000 C=    0.0000
 XYZ=   -2.5662    9.7604    2.4996 Q=    0.4100 A=    0.0000 R=    0.0000 C=    0.0000
 XYZ=   -0.6455    2.4442    9.0966 Q=   -0.8200 A=    0.0000 R=    0.0000 C=    0.0000
 XYZ=   -1.2224    1.6344    8.9894 Q=    0.4100 A=    0.0000 R=    0.0000 C=    0.0000
 XYZ=   -0.5840    2.6837   10.0655 Q=    0.4100 A=    0.0000 R=    0.0000 C=    0.0000
 XYZ=   -6.4858   -3.5526   -6.7740 Q=   -0.8200 A=    0.0000 R=    0.0000 C=    0.0000
 XYZ=   -6.0772   -4.1850   -7.4321 Q=    0.4100 A=    0.0000 R=    0.0000 C=    0.0000
 XYZ=   -6.8762   -2.7712   -7.2608 Q=    0.4100 A=    0.0000 R=    0.0000 C=    0.0000
 XYZ=    5.4363    1.9135    7.5752 Q=   -0.8200 A=    0.0000 R=    0.0000 C=    0.0000
 XYZ=    6.1883    2.4186    7.1517 Q=    0.4100 A=    0.0000 R=    0.0000 C=    0.0000
 XYZ=    5.1241    2.4018    8.3902 Q=    0.4100 A=    0.0000 R=    0.0000 C=    0.0000
 XYZ=   -2.3777    5.4880   -7.8120 Q=   -0.8200 A=    0.0000 R=    0.0000 C=    0.0000
 XYZ=   -3.3382    5.5135   -8.0894 Q=    0.4100 A=    0.0000 R=    0.0000 C=    0.0000
 XYZ=   -1.8389    6.0681   -8.4231 Q=    0.4100 A=    0.0000 R=    0.0000 C=    0.0000
 XYZ=    5.9834    4.4722   -5.3682 Q=   -0.8200 A=    0.0000 R=    0.0000 C=    0.0000
 XYZ=    6.6632    5.2007   -5.2842 Q=    0.4100 A=    0.0000 R=    0.0000 C=    0.0000
 XYZ=    6.3571    3.7302   -5.9249 Q=    0.4100 A=    0.0000 R=    0.0000 C=    0.0000
 XYZ=   -4.3452    6.4806    5.8463 Q=   -0.8200 A=    0.0000 R=    0.0000 C=    0.0000
 XYZ=   -5.2068    6.9489    6.0423 Q=    0.4100 A=    0.0000 R=    0.0000 C=    0.0000
 XYZ=   -4.5164    5.7120    5.2299 Q=    0.4100 A=    0.0000 R=    0.0000 C=    0.0000
 XYZ=    6.3193   -0.8115    6.7857 Q=   -0.8200 A=    0.0000 R=    0.0000 C=    0.0000
 XYZ=    6.4754   -0.3347    7.6507 Q=    0.4100 A=    0.0000 R=    0.0000 C=    0.0000
 XYZ=    7.1128   -1.3809    6.5710 Q=    0.4100 A=    0.0000 R=    0.0000 C=    0.0000
 XYZ=   -1.7001   -6.8021    6.6520 Q=   -0.8200 A=    0.0000 R=    0.0000 C=    0.0000
 XYZ=   -1.5684   -6.4483    7.5781 Q=    0.4100 A=    0.0000 R=    0.0000 C=    0.0000
 XYZ=   -2.5213   -7.3723    6.6267 Q=    0.4100 A=    0.0000 R=    0.0000 C=    0.0000
 XYZ=   -1.3618    4.6683    8.5753 Q=   -0.8200 A=    0.0000 R=    0.0000 C=    0.0000
 XYZ=   -0.7334    5.1227    7.9438 Q=    0.4100 A=    0.0000 R=    0.0000 C=    0.0000
 XYZ=   -1.0483    3.7336    8.7424 Q=    0.4100 A=    0.0000 R=    0.0000 C=    0.0000
 XYZ=   -3.1176   -4.2799   -9.0141 Q=   -0.8200 A=    0.0000 R=    0.0000 C=    0.0000
 XYZ=   -2.5230   -5.0318   -8.7293 Q=    0.4100 A=    0.0000 R=    0.0000 C=    0.0000
 XYZ=   -2.7492   -3.8595   -9.8433 Q=    0.4100 A=    0.0000 R=    0.0000 C=    0.0000
 XYZ=    0.4878   -4.5851    8.9662 Q=   -0.8200 A=    0.0000 R=    0.0000 C=    0.0000
 XYZ=    0.9741   -4.5632    8.0926 Q=    0.4100 A=    0.0000 R=    0.0000 C=    0.0000
 XYZ=    1.0657   -5.0170    9.6586 Q=    0.4100 A=    0.0000 R=    0.0000 C=    0.0000
 XYZ=    0.3326    9.3279    3.6282 Q=   -0.8200 A=    0.0000 R=    0.0000 C=    0.0000
 XYZ=   -0.6038    9.3413    3.2773 Q=    0.4100 A=    0.0000 R=    0.0000 C=    0.0000
 XYZ=    0.3494    8.8674    4.5157 Q=    0.4100 A=    0.0000 R=    0.0000 C=    0.0000
 XYZ=   -9.8323    0.2045   -0.9521 Q=   -0.8200 A=    0.0000 R=    0.0000 C=    0.0000
 XYZ=   -9.9695    1.1317   -1.3007 Q=    0.4100 A=    0.0000 R=    0.0000 C=    0.0000
 XYZ=   -8.9450   -0.1392   -1.2596 Q=    0.4100 A=    0.0000 R=    0.0000 C=    0.0000
 XYZ=    2.2111   -7.3422   -8.1089 Q=   -0.8200 A=    0.0000 R=    0.0000 C=    0.0000
 XYZ=    1.7600   -7.3462   -7.2164 Q=    0.4100 A=    0.0000 R=    0.0000 C=    0.0000
 XYZ=    3.1838   -7.5426   -7.9916 Q=    0.4100 A=    0.0000 R=    0.0000 C=    0.0000
 XYZ=    0.5646    8.4486    5.8198 Q=   -0.8200 A=    0.0000 R=    0.0000 C=    0.0000
 XYZ=    1.2529    7.7439    5.6478 Q=    0.4100 A=    0.0000 R=    0.0000 C=    0.0000
 XYZ=   -0.3234    8.0161    5.9763 Q=    0.4100 A=    0.0000 R=    0.0000 C=    0.0000
 XYZ=   -6.4312    3.5600    5.8737 Q=   -0.8200 A=    0.0000 R=    0.0000 C=    0.0000
 XYZ=   -6.1836    3.5687    6.8425 Q=    0.4100 A=    0.0000 R=    0.0000 C=    0.0000
 XYZ=   -6.4137    2.6197    5.5337 Q=    0.4100 A=    0.0000 R=    0.0000 C=    0.0000
 XYZ=   -1.4973    7.4190    6.3118 Q=   -0.8200 A=    0.0000 R=    0.0000 C=    0.0000
 XYZ=   -2.0774    7.6332    5.5260 Q=    0.4100 A=    0.0000 R=    0.0000 C=    0.0000
 XYZ=   -2.0519    7.0010    7.0314 Q=    0.4100 A=    0.0000 R=    0.0000 C=    0.0000
 XYZ=   -4.8776  -10.2076   -1.8682 Q=   -0.8200 A=    0.0000 R=    0.0000 C=    0.0000
 XYZ=   -5.6487  -10.8247   -2.0250 Q=    0.4100 A=    0.0000 R=    0.0000 C=    0.0000
 XYZ=   -4.9344   -9.4356   -2.5013 Q=    0.4100 A=    0.0000 R=    0.0000 C=    0.0000
 XYZ=    8.9603   -1.1903   -1.2081 Q=   -0.8200 A=    0.0000 R=    0.0000 C=    0.0000
 XYZ=    8.6337   -0.2490   -1.1222 Q=    0.4100 A=    0.0000 R=    0.0000 C=    0.0000
 XYZ=    9.4571   -1.4476   -0.3792 Q=    0.4100 A=    0.0000 R=    0.0000 C=    0.0000
 XYZ=   -0.5575  -10.7488   -4.3784 Q=   -0.8200 A=    0.0000 R=    0.0000 C=    0.0000
 XYZ=   -0.0321  -10.2899   -3.6619 Q=    0.4100 A=    0.0000 R=    0.0000 C=    0.0000
 XYZ=   -0.8370  -10.0798   -5.0671 Q=    0.4100 A=    0.0000 R=    0.0000 C=    0.0000
 XYZ=   -6.9688    6.0650    3.3061 Q=   -0.8200 A=    0.0000 R=    0.0000 C=    0.0000
 XYZ=   -7.6513    5.7916    3.9840 Q=    0.4100 A=    0.0000 R=    0.0000 C=    0.0000
 XYZ=   -7.0796    5.5123    2.4800 Q=    0.4100 A=    0.0000 R=    0.0000 C=    0.0000
 XYZ=   -3.0562    8.0092    4.7809 Q=   -0.8200 A=    0.0000 R=    0.0000 C=    0.0000
 XYZ=   -3.8072    7.4236    5.0860 Q=    0.4100 A=    0.0000 R=    0.0000 C=    0.0000
 XYZ=   -3.2971    8.9675    4.9348 Q=    0.4100 A=    0.0000 R=    0.0000 C=    0.0000
 XYZ=    7.3565   -6.3163   -2.5883 Q=   -0.8200 A=    0.0000 R=    0.0000 C=    0.0000
 XYZ=    6.7006   -5.8683   -3.1959 Q=    0.4100 A=    0.0000 R=    0.0000 C=    0.0000
 XYZ=    8.2857   -6.1430   -2.9149 Q=    0.4100 A=    0.0000 R=    0.0000 C=    0.0000
 XYZ=    1.1432   -0.3958  -10.5671 Q=   -0.8200 A=    0.0000 R=    0.0000 C=    0.0000
 XYZ=    1.7832   -1.1180  -10.8296 Q=    0.4100 A=    0.0000 R=    0.0000 C=    0.0000
 XYZ=    0.2719   -0.8051  -10.2962 Q=    0.4100 A=    0.0000 R=    0.0000 C=    0.0000
 XYZ=   -5.2979   -4.8456   -8.3765 Q=   -0.8200 A=    0.0000 R=    0.0000 C=    0.0000
 XYZ=   -4.4234   -4.4367   -8.6376 Q=    0.4100 A=    0.0000 R=    0.0000 C=    0.0000
 XYZ=   -5.1665   -5.8178   -8.1826 Q=    0.4100 A=    0.0000 R=    0.0000 C=    0.0000
 XYZ=    8.0363    4.8325   -1.9890 Q=   -0.8200 A=    0.0000 R=    0.0000 C=    0.0000
 XYZ=    8.5144    4.1707   -1.4114 Q=    0.4100 A=    0.0000 R=    0.0000 C=    0.0000
 XYZ=    8.1535    5.7508   -1.6108 Q=    0.4100 A=    0.0000 R=    0.0000 C=    0.0000
 XYZ=    8.6944   -4.9833    1.8789 Q=   -0.8200 A=    0.0000 R=    0.0000 C=    0.0000
 XYZ=    7.8459   -4.6269    2.2702 Q=    0.4100 A=    0.0000 R=    0.0000 C=    0.0000
 XYZ=    8.5729   -5.1299    0.8972 Q=    0.4100 A=    0.0000 R=    0.0000 C=    0.0000
 XYZ=    9.3116    2.9718   -0.7912 Q=   -0.8200 A=    0.0000 R=    0.0000 C=    0.0000
 XYZ=    8.8079    2.1083   -0.8176 Q=    0.4100 A=    0.0000 R=    0.0000 C=    0.0000
 XYZ=    9.3660    3.2971    0.1528 Q=    0.4100 A=    0.0000 R=    0.0000 C=    0.0000
 XYZ=   -5.2715   -7.1836   -7.6629 Q=   -0.8200 A=    0.0000 R=    0.0000 C=    0.0000
 XYZ=   -4.3870   -7.5499   -7.9520 Q=    0.4100 A=    0.0000 R=    0.0000 C=    0.0000
 XYZ=   -5.3049   -7.1424   -6.6643 Q=    0.4100 A=    0.0000 R=    0.0000 C=    0.0000
 XYZ=    2.6277    3.4426   10.0151 Q=   -0.8200 A=    0.0000 R=    0.0000 C=    0.0000
 XYZ=    3.6032    3.5336    9.8145 Q=    0.4100 A=    0.0000 R=    0.0000 C=    0.0000
 XYZ=    2.2251    2.7578    9.4077 Q=    0.4100 A=    0.0000 R=    0.0000 C=    0.0000
 XYZ=    8.1192   -5.1272   -0.4590 Q=   -0.8200 A=    0.0000 R=    0.0000 C=    0.0000
 XYZ=    9.0694   -5.2473   -0.7469 Q=    0.4100 A=    0.0000 R=    0.0000 C=    0.0000
 XYZ=    7.5188   -5.6481   -1.0659 Q=    0.4100 A=    0.0000 R=    0.0000 C=    0.0000
 XYZ=    1.4353   11.3275    0.0830 Q=   -0.8200 A=    0.0000 R=    0.0000 C=    0.0000
 XYZ=    2.4020   11.5834    0.0822 Q=    0.4100 A=    0.0000 R=    0.0000 C=    0.0000
 XYZ=    1.3059   10.5123   -0.4814 Q=    0.4100 A=    0.0000 R=    0.0000 C=    0.0000
 XYZ=   -3.0589    6.1434    7.7721 Q=   -0.8200 A=    0.0000 R=    0.0000 C=    0.0000
 XYZ=   -3.5656    6.1272    6.9101 Q=    0.4100 A=    0.0000 R=    0.0000 C=    0.0000
 XYZ=   -2.4646    5.3408    7.8244 Q=    0.4100 A=    0.0000 R=    0.0000 C=    0.0000
 XYZ=   -6.7468   -8.2156    1.6390 Q=   -0.8200 A=    0.0000 R=    0.0000 C=    0.0000
 XYZ=   -7.1691   -7.3107    1.6925 Q=    0.4100 A=    0.0000 R=    0.0000 C=    0.0000
 XYZ=   -6.4248   -8.4872    2.5460 Q=    0.4100 A=    0.0000 R=    0.0000 C=    0.0000
 XYZ=   -7.4129   -0.6134    5.8506 Q=   -0.8200 A=    0.0000 R=    0.0000 C=    0.0000
 XYZ=   -8.0874   -1.1667    5.3617 Q=    0.4100 A=    0.0000 R=    0.0000 C=    0.0000
 XYZ=   -6.6721   -1.2013    6.1757 Q=    0.4100 A=    0.0000 R=    0.0000 C=    0.0000
 XYZ=    2.7099   -5.2382   -8.7370 Q=   -0.8200 A=    0.0000 R=    0.0000 C=    0.0000
 XYZ=    2.4152   -6.1369   -8.4122 Q=    0.4100 A=    0.0000 R=    0.0000 C=    0.0000
 XYZ=    3.6534   -5.0728   -8.4496 Q=    0.4100 A=    0.0000 R=    0.0000 C=    0.0000
 XYZ=    8.9042    3.0256    5.2252 Q=   -0.8200 A=    0.0000 R=    0.0000 C=    0.0000
 XYZ=    8.4695    2.3605    4.6180 Q=    0.4100 A=    0.0000 R=    0.0000 C=    0.0000
 XYZ=    9.7603    2.6464    5.5765 Q=    0.4100 A=    0.0000 R=    0.0000 C=    0.0000
 XYZ=   -8.6464   -5.9794   -2.2859 Q=   -0.8200 A=    0.0000 R=    0.0000 C=    0.0000
 XYZ=   -9.2008   -5.2466   -2.6803 Q=    0.4100 A=    0.0000 R=    0.0000 C=    0.0000
 XYZ=   -8.8910   -6.8495   -2.7137 Q=    0.4100 A=    0.0000 R=    0.0000 C=    0.0000
 XYZ=   -2.1155    0.3725  -11.0679 Q=   -0.8200 A=    0.0000 R=    0.0000 C=    0.0000
 XYZ=   -1.7143   -0.4142  -10.5986 Q=    0.4100 A=    0.0000 R=    0.0000 C=    0.0000
 XYZ=   -3.1064    0.2532  -11.1309 Q=    0.4100 A=    0.0000 R=    0.0000 C=    0.0000
 XYZ=    5.0834   -5.1720   -7.9065 Q=   -0.8200 A=    0.0000 R=    0.0000 C=    0.0000
 XYZ=    5.7712   -5.1541   -8.6322 Q=    0.4100 A=    0.0000 R=    0.0000 C=    0.0000
 XYZ=    5.3255   -4.5056   -7.2013 Q=    0.4100 A=    0.0000 R=    0.0000 C=    0.0000
 XYZ=   -2.9177   -7.7130   -8.1865 Q=   -0.8200 A=    0.0000 R=    0.0000 C=    0.0000
 XYZ=   -2.1853   -7.0869   -8.4542 Q=    0.4100 A=    0.0000 R=    0.0000 C=    0.0000
 XYZ=   -2.6453   -8.6526   -8.3938 Q=    0.4100 A=    0.0000 R=    0.0000 C=    0.0000
 XYZ=   -6.9263   -5.5946    5.5253 Q=   -0.8200 A=    0.0000 R=    0.0000 C=    0.0000
 XYZ=   -7.7362   -5.9751    5.0790 Q=    0.4100 A=    0.0000 R=    0.0000 C=    0.0000
 XYZ=   -6.8783   -4.6117    5.3471 Q=    0.4100 A=    0.0000 R=    0.0000 C=    0.0000
 XYZ=    6.2138   -7.9279   -1.3642 Q=   -0.8200 A=    0.0000 R=    0.0000 C=    0.0000
 XYZ=    6.9529   -8.1813   -0.7402 Q=    0.4100 A=    0.0000 R=    0.0000 C=    0.0000
 XYZ=    6.5967   -7.4659   -2.1642 Q=    0.4100 A=    0.0000 R=    0.0000 C=    0.0000
 XYZ=    6.6230    0.2357    8.7515 Q=   -0.8200 A=    0.0000 R=    0.0000 C=    0.0000
 XYZ=    6.0448    0.9621    8.3797 Q=    0.4100 A=    0.0000 R=    0.0000 C=    0.0000
 XYZ=    7.5313    0.6026    8.9523 Q=    0.4100 A=    0.0000 R=    0.0000 C=    0.0000
 XYZ=    5.8677    5.1657    6.9531 Q=   -0.8200 A=    0.0000 R=    0.0000 C=    0.0000
 XYZ=    6.3867    6.0059    7.1101 Q=    0.4100 A=    0.0000 R=    0.0000 C=    0.0000
 XYZ=    6.4489    4.3745    7.1432 Q=    0.4100 A=    0.0000 R=    0.0000 C=    0.0000
 XYZ=    0.3422    5.5910  -10.1373 Q=   -0.8200 A=    0.0000 R=    0.0000 C=    0.0000
 XYZ=   -0.1618    5.0131  -10.7792 Q=    0.4100 A=    0.0000 R=    0.0000 C=    0.0000
 XYZ=    0.6935    5.0293   -9.3882 Q=    0.4100 A=    0.0000 R=    0.0000 C=    0.0000
 XYZ=   -1.5735   10.5834   -3.8499 Q=   -0.8200 A=    0.0000 R=    0.0000 C=    0.0000
 XYZ=   -2.0705   10.2894   -3.0334 Q=    0.4100 A=    0.0000 R=    0.0000 C=    0.0000
 XYZ=   -1.2804   11.5329   -3.7377 Q=    0.4100 A=    0.0000 R=    0.0000 C=    0.0000
 XYZ=    1.2167   11.3414    2.6185 Q=   -0.8200 A=    0.0000 R=    0.0000 C=    0.0000
 XYZ=    1.0169   10.3920    2.8610 Q=    0.4100 A=    0.0000 R=    0.0000 C=    0.0000
 XYZ=    1.3942   11.4042    1.6364 Q=    0.4100 A=    0.0000 R=    0.0000 C=    0.0000
 XYZ=   -3.9515   -8.0057    6.6995 Q=   -0.8200 A=    0.0000 R=    0.0000 C=    0.0000
 XYZ=   -4.3802   -7.5832    5.9008 Q=    0.4100 A=    0.0000 R=    0.0000 C=    0.0000
 XYZ=   -4.2054   -7.4969    7.5221 Q=    0.4100 A=    0.0000 R=    0.0000 C=    0.0000
 XYZ=   -2.7096  -11.2047   -1.9813 Q=   -0.8200 A=    0.0000 R=    0.0000 C=    0.0000
 XYZ=   -2.5944  -11.7597   -2.8052 Q=    0.4100 A=    0.0000 R=    0.0000 C=    0.0000
 XYZ=   -3.6182  -10.7871   -1.9851 Q=    0.4100 A=    0.0000 R=    0.0000 C=    0.0000
 XYZ=    7.2745   -0.6684   -7.3661 Q=   -0.8200 A=    0.0000 R=    0.0000 C=    0.0000
 XYZ=    7.4218   -0.3793   -6.4202 Q=    0.4100 A=    0.0000 R=    0.0000 C=    0.0000
 XYZ=    6.3405   -1.0108   -7.4684 Q=    0.4100 A=    0.0000 R=    0.0000 C=    0.0000
 XYZ=    7.9088   -7.3110    2.2848 Q=   -0.8200 A=    0.0000 R=    0.0000 C=    0.0000
 XYZ=    8.3598   -6.4206    2.2218 Q=    0.4100 A=    0.0000 R=    0.0000 C=    0.0000
 XYZ=    6.9461   -7.1809    2.5220 Q=    0.4100 A=    0.0000 R=    0.0000 C=    0.0000
 XYZ=   -6.0794    8.7739   -0.5190 Q=   -0.8200 A=    0.0000 R=    0.0000 C=    0.0000
 XYZ=   -6.6648    9.5731   -0.6552 Q=    0.4100 A=    0.0000 R=    0.0000 C=    0.0000
 XYZ=   -6.1963    8.4299    0.4127 Q=    0.4100 A=    0.0000 R=    0.0000 C=    0.0000
 XYZ=    8.1141    7.0078   -1.2777 Q=   -0.8200 A=    0.0000 R=    0.0000 C=    0.0000
 XYZ=    7.6139    7.5715   -1.9350 Q=    0.4100 A=    0.0000 R=    0.0000 C=    0.0000
 XYZ=    7.6652    7.0584   -0.3856 Q=    0.4100 A=    0.0000 R=    0.0000 C=    0.0000
 XYZ=    6.0109    1.4782   -7.8945 Q=   -0.8200 A=    0.0000 R=    0.0000 C=    0.0000
 XYZ=    6.6332    2.0959   -7.4135 Q=    0.4100 A=    0.0000 R=    0.0000 C=    0.0000
 XYZ=    6.4947    0.6355   -8.1310 Q=    0.4100 A=    0.0000 R=    0.0000 C=    0.0000
 XYZ=    7.7909    0.1557   -5.1786 Q=   -0.8200 A=    0.0000 R=    0.0000 C=    0.0000
 XYZ=    8.2220    1.0532   -5.0847 Q=    0.4100 A=    0.0000 R=    0.0000 C=    0.0000
 XYZ=    8.4868   -0.5581   -5.1000 Q=    0.4100 A=    0.0000 R=    0.0000 C=    0.0000
 XYZ=  -10.1122   -0.1661    1.3496 Q=   -0.8200 A=    0.0000 R=    0.0000 C=    0.0000
 XYZ=  -10.0280    0.0116    0.3691 Q=    0.4100 A=    0.0000 R=    0.0000 C=    0.0000
 XYZ=   -9.2830   -0.6179    1.6788 Q=    0.4100 A=    0.0000 R=    0.0000 C=    0.0000
 XYZ=    2.9470    1.2337  -10.4500 Q=   -0.8200 A=    0.0000 R=    0.0000 C=    0.0000
 XYZ=    2.5573    2.1338  -10.6447 Q=    0.4100 A=    0.0000 R=    0.0000 C=    0.0000
 XYZ=    2.2270    0.5413  -10.4982 Q=    0.4100 A=    0.0000 R=    0.0000 C=    0.0000
 XYZ=    0.3518  -11.2691   -0.5038 Q=   -0.8200 A=    0.0000 R=    0.0000 C=    0.0000
 XYZ=    0.9445  -11.9583   -0.9206 Q=    0.4100 A=    0.0000 R=    0.0000 C=    0.0000
 XYZ=   -0.5474  -11.6678   -0.3235 Q=    0.4100 A=    0.0000 R=    0.0000 C=    0.0000
 XYZ=    7.4355    7.7514    0.9159 Q=   -0.8200 A=    0.0000 R=    0.0000 C=    0.0000
 XYZ=    8.0379    8.5242    1.1159 Q=    0.4100 A=    0.0000 R=    0.0000 C=    0.0000
 XYZ=    7.4473    7.1119    1.6846 Q=    0.4100 A=    0.0000 R=    0.0000 C=    0.0000
 XYZ=   -6.8050    0.6725   -8.6983 Q=   -0.8200 A=    0.0000 R=    0.0000 C=    0.0000
 XYZ=   -7.6972    1.1080   -8.5786 Q=    0.4100 A=    0.0000 R=    0.0000 C=    0.0000
 XYZ=   -6.9180   -0.3211   -8.7097 Q=    0.4100 A=    0.0000 R=    0.0000 C=    0.0000
 XYZ=   -1.4027   -5.9567    8.8254 Q=   -0.8200 A=    0.0000 R=    0.0000 C=    0.0000
 XYZ=   -0.5944   -5.3705    8.8809 Q=    0.4100 A=    0.0000 R=    0.0000 C=    0.0000
 XYZ=   -2.2256   -5.3888    8.8072 Q=    0.4100 A=    0.0000 R=    0.0000 C=    0.0000
 XYZ=    9.6070    3.6012    1.4764 Q=   -0.8200 A=    0.0000 R=    0.0000 C=    0.0000
 XYZ=    9.0771    3.9445    2.2519 Q=    0.4100 A=    0.0000 R=    0.0000 C=    0.0000
 XYZ=   10.5633    3.8749    1.5789 Q=    0.4100 A=    0.0000 R=    0.0000 C=    0.0000
 XYZ=   -8.7343   -2.1528    4.5453 Q=   -0.8200 A=    0.0000 R=    0.0000 C=    0.0000
 XYZ=   -8.6926   -1.7043    3.6525 Q=    0.4100 A=    0.0000 R=    0.0000 C=    0.0000
 XYZ=   -9.4966   -2.7999    4.5580 Q=    0.4100 A=    0.0000 R=    0.0000 C=    0.0000
 XYZ=   -8.6675    3.5361   -7.0721 Q=   -0.8200 A=    0.0000 R=    0.0000 C=    0.0000
 XYZ=   -9.1163    3.7545   -6.2055 Q=    0.4100 A=    0.0000 R=    0.0000 C=    0.0000
 XYZ=   -7.6787    3.4853   -6.9318 Q=    0.4100 A=    0.0000 R=    0.0000 C=    0.0000
 XYZ=   -9.4484    4.1103   -1.0099 Q=   -0.8200 A=    0.0000 R=    0.0000 C=    0.0000
 XYZ=   -8.8498    4.5677   -1.6676 Q=    0.4100 A=    0.0000 R=    0.0000 C=    0.0000
 XYZ=   -9.0526    4.1802   -0.0942 Q=    0.4100 A=    0.0000 R=    0.0000 C=    0.0000
 XYZ=    7.3624    3.2281    7.1065 Q=   -0.8200 A=    0.0000 R=    0.0000 C=    0.0000
 XYZ=    7.8404    3.3057    6.2315 Q=    0.4100 A=    0.0000 R=    0.0000 C=    0.0000
 XYZ=    8.0292    3.0949    7.8398 Q=    0.4100 A=    0.0000 R=    0.0000 C=    0.0000
 XYZ=   10.5298    1.4569    1.6748 Q=   -0.8200 A=    0.0000 R=    0.0000 C=    0.0000
 XYZ=    9.8086    0.7902    1.8625 Q=    0.4100 A=    0.0000 R=    0.0000 C=    0.0000
 XYZ=   10.1179    2.3198    1.3816 Q=    0.4100 A=    0.0000 R=    0.0000 C=    0.0000
 XYZ=    1.5406   -4.0959  -10.3571 Q=   -0.8200 A=    0.0000 R=    0.0000 C=    0.0000
 XYZ=    2.0362   -3.2380  -10.4929 Q=    0.4100 A=    0.0000 R=    0.0000 C=    0.0000
 XYZ=    2.0534   -4.6812   -9.7290 Q=    0.4100 A=    0.0000 R=    0.0000 C=    0.0000
 XYZ=   10.1942   -1.5674    0.8900 Q=   -0.8200 A=    0.0000 R=    0.0000 C=    0.0000
 XYZ=   10.3746   -2.4904    1.2298 Q=    0.4100 A=    0.0000 R=    0.0000 C=    0.0000
 XYZ=    9.6947   -1.0485    1.5837 Q=    0.4100 A=    0.0000 R=    0.0000 C=    0.0000
 XYZ=    1.9490    3.3429  -11.0429 Q=   -0.8200 A=    0.0000 R=    0.0000 C=    0.0000
 XYZ=    1.1744    3.4430  -10.4184 Q=    0.4100 A=    0.0000 R=    0.0000 C=    0.0000
 XYZ=    2.4075    4.2252  -11.1494 Q=    0.4100 A=    0.0000 R=    0.0000 C=    0.0000
 XYZ=   -4.3173   10.4375   -0.4943 Q=   -0.8200 A=    0.0000 R=    0.0000 C=    0.0000
 XYZ=   -4.6040   11.3282   -0.8474 Q=    0.4100 A=    0.0000 R=    0.0000 C=    0.0000
 XYZ=   -4.9955    9.7462   -0.7435 Q=    0.4100 A=    0.0000 R=    0.0000 C=    0.0000
 XYZ=   -9.6138    2.2167   -4.0975 Q=   -0.8200 A=    0.0000 R=    0.0000 C=    0.0000
 XYZ=   -9.9474    2.2112   -3.1547 Q=    0.4100 A=    0.0000 R=    0.0000 C=    0.0000
 XYZ=  -10.3553    1.9539   -4.7149 Q=    0.4100 A=    0.0000 R=    0.0000 C=    0.0000
 XYZ=   -6.1710   -8.9293    3.7099 Q=   -0.8200 A=    0.0000 R=    0.0000 C=    0.0000
 XYZ=   -5.8987   -8.1086    4.2122 Q=    0.4100 A=    0.0000 R=    0.0000 C=    0.0000
 XYZ=   -5.5193   -9.6649    3.8948 Q=    0.4100 A=    0.0000 R=    0.0000 C=    0.0000
 XYZ=    4.8871   -2.0144  -10.0690 Q=   -0.8200 A=    0.0000 R=    0.0000 C=    0.0000
 XYZ=    4.9796   -1.8517   -9.0867 Q=    0.4100 A=    0.0000 R=    0.0000 C=    0.0000
 XYZ=    5.7539   -2.3544  -10.4337 Q=    0.4100 A=    0.0000 R=    0.0000 C=    0.0000
 XYZ=   -9.7583    1.4999    3.0414 Q=   -0.8200 A=    0.0000 R=    0.0000 C=    0.0000
 XYZ=   -8.7885    1.2893    3.1643 Q=    0.4100 A=    0.0000 R=    0.0000 C=    0.0000
 XYZ=  -10.1580    0.8592    2.3858 Q=    0.4100 A=    0.0000 R=    0.0000 C=    0.0000
 XYZ=   -9.3735   -6.6824    0.1979 Q=   -0.8200 A=    0.0000 R=    0.0000 C=    0.0000
 XYZ=   -9.2363   -6.4281   -0.7595 Q=    0.4100 A=    0.0000 R=    0.0000 C=    0.0000
 XYZ=  -10.2526   -6.3261    0.5146 Q=    0.4100 A=    0.0000 R=    0.0000 C=    0.0000
 XYZ=   -0.4346   -2.9462   10.3707 Q=   -0.8200 A=    0.0000 R=    0.0000 C=    0.0000
 XYZ=   -0.1438   -3.6559    9.7290 Q=    0.4100 A=    0.0000 R=    0.0000 C=    0.0000
 XYZ=   -1.0100   -3.3536   11.0799 Q=    0.4100 A=    0.0000 R=    0.0000 C=    0.0000
 XYZ=    4.6109   -7.5560   -7.4842 Q=   -0.8200 A=    0.0000 R=    0.0000 C=    0.0000
 XYZ=    4.7582   -6.5741   -7.6030 Q=    0.4100 A=    0.0000 R=    0.0000 C=    0.0000
 XYZ=    5.4898   -8.0317   -7.5210 Q=    0.4100 A=    0.0000 R=    0.0000 C=    0.0000
 XYZ=    9.1937    4.4171   -3.9790 Q=   -0.8200 A=    0.0000 R=    0.0000 C=    0.0000
 XYZ=    8.7656    4.7606   -3.1430 Q=    0.4100 A=    0.0000 R=    0.0000 C=    0.0000
 XYZ=   10.1714    4.2794   -3.8205 Q=    0.4100 A=    0.0000 R=    0.0000 C=    0.0000
 XYZ=   -4.6823    5.1551   -8.9550 Q=   -0.8200 A=    0.0000 R=    0.0000 C=    0.0000
 XYZ=   -5.3442    5.8312   -9.2789 Q=    0.4100 A=    0.0000 R=    0.0000 C=    0.0000
 XYZ=   -4.5659    4.4440   -9.6484 Q=    0.4100 A=    0.0000 R=    0.0000 C=    0.0000
 XYZ=   -8.7736   -6.0447    4.1277 Q=   -0.8200 A=    0.0000 R=    0.0000 C=    0.0000
 XYZ=   -8.2519   -6.0049    3.2755 Q=    0.4100 A=    0.0000 R=    0.0000 C=    0.0000
 XYZ=   -9.2972   -6.8962    4.1585 Q=    0.4100 A=    0.0000 R=    0.0000 C=    0.0000
 XYZ=   -9.3853    4.5259   -4.3845 Q=   -0.8200 A=    0.0000 R=    0.0000 C=    0.0000
 XYZ=   -8.8029    4.9393   -3.6845 Q=    0.4100 A=    0.0000 R=    0.0000 C=    0.0000
 XYZ=   -9.4523    3.5412   -4.2232 Q=    0.4100 A=    0.0000 R=    0.0000 C=    0.0000
 XYZ=   -4.3512    3.3251  -10.9994 Q=   -0.8200 A=    0.0000 R=    0.0000 C=    0.0000
 XYZ=   -5.0305    2.5915  -10.9799 Q=    0.4100 A=    0.0000 R=    0.0000 C=    0.0000
 XYZ=   -3.4708    2.9728  -10.6819 Q=    0.4100 A=    0.0000 R=    0.0000 C=    0.0000
 XYZ=   -7.4124   -1.5123   -8.5897 Q=   -0.8200 A=    0.0000 R=    0.0000 C=    0.0000
 XYZ=   -8.3524   -1.2611   -8.8207 Q=    0.4100 A=    0.0000 R=    0.0000 C=    0.0000
 XYZ=   -7.0884   -2.2122   -9.2263 Q=    0.4100 A=    0.0000 R=    0.0000 C=    0.0000
 XYZ=   -3.2722   11.1044    1.6698 Q=   -0.8200 A=    0.0000 R=    0.0000 C=    0.0000
 XYZ=   -4.0274   11.2898    2.2987 Q=    0.4100 A=    0.0000 R=    0.0000 C=    0.0000
 XYZ=   -3.6364   10.7641    0.8029 Q=    0.4100 A=    0.0000 R=    0.0000 C=    0.0000
 XYZ=    7.3492    2.8277   -6.7062 Q=   -0.8200 A=    0.0000 R=    0.0000 C=    0.0000
 XYZ=    7.7711    3.6751   -7.0289 Q=    0.4100 A=    0.0000 R=    0.0000 C=    0.0000
 XYZ=    8.0207    2.2971   -6.1889 Q=    0.4100 A=    0.0000 R=    0.0000 C=    0.0000
 XYZ=    4.8583    3.2934    9.4796 Q=   -0.8200 A=    0.0000 R=    0.0000 C=    0.0000
 XYZ=    5.4644    2.8636   10.1490 Q=    0.4100 A=    0.0000 R=    0.0000 C=    0.0000
 XYZ=    5.1527    4.2357    9.3202 Q=    0.4100 A=    0.0000 R=    0.0000 C=    0.0000
 XYZ=   -3.6292   -4.9528    8.9084 Q=   -0.8200 A=    0.0000 R=    0.0000 C=    0.0000
 XYZ=   -4.0990   -5.7973    8.6511 Q=    0.4100 A=    0.0000 R=    0.0000 C=    0.0000
 XYZ=   -3.5636   -4.8983    9.9048 Q=    0.4100 A=    0.0000 R=    0.0000 C=    0.0000
 XYZ=   -4.4585   10.4013   -4.9558 Q=   -0.8200 A=    0.0000 R=    0.0000 C=    0.0000
 XYZ=   -4.2720    9.6531   -4.3190 Q=    0.4100 A=    0.0000 R=    0.0000 C=    0.0000
 XYZ=   -3.6071   10.6813   -5.3994 Q=    0.4100 A=    0.0000 R=    0.0000 C=    0.0000
 XYZ=   -0.5420   -3.4156  -11.1080 Q=   -0.8200 A=    0.0000 R=    0.0000 C=    0.0000
 XYZ=    0.3075   -3.8368  -10.7902 Q=    0.4100 A=    0.0000 R=    0.0000 C=    0.0000
 XYZ=   -0.5762   -3.4470  -12.1070 Q=    0.4100 A=    0.0000 R=    0.0000 C=    0.0000
 XYZ=  -10.3200    2.2236   -1.9097 Q=   -0.8200 A=    0.0000 R=    0.0000 C=    0.0000
 XYZ=  -11.3178    2.1756   -1.8636 Q=    0.4100 A=    0.0000 R=    0.0000 C=    0.0000
 XYZ=  -10.0181    3.1411   -1.6508 Q=    0.4100 A=    0.0000 R=    0.0000 C=    0.0000
 XYZ=   -6.7056   -3.3817   -9.9267 Q=   -0.8200 A=    0.0000 R=    0.0000 C=    0.0000
 XYZ=   -6.0473   -3.8234   -9.3172 Q=    0.4100 A=    0.0000 R=    0.0000 C=    0.0000
 XYZ=   -7.3136   -4.0728  -10.3177 Q=    0.4100 A=    0.0000 R=    0.0000 C=    0.0000
 XYZ=   -4.3786  -10.5943    4.0325 Q=   -0.8200 A=    0.0000 R=    0.0000 C=    0.0000
 XYZ=   -4.9664  -11.2969    3.6314 Q=    0.4100 A=    0.0000 R=    0.0000 C=    0.0000
 XYZ=   -3.6116  -10.4106    3.4177 Q=    0.4100 A=    0.0000 R=    0.0000 C=    0.0000
 XYZ=   -5.9216    3.1782    8.1476 Q=   -0.8200 A=    0.0000 R=    0.0000 C=    0.0000
 XYZ=   -6.0448    2.6187    8.9673 Q=    0.4100 A=    0.0000 R=    0.0000 C=    0.0000
 XYZ=   -5.4912    4.0455    8.3978 Q=    0.4100 A=    0.0000 R=    0.0000 C=    0.0000
 XYZ=   -1.1628    4.1281  -11.6437 Q=   -0.8200 A=    0.0000 R=    0.0000 C=    0.0000
 XYZ=   -1.6654    3.4696  -11.0836 Q=    0.4100 A=    0.0000 R=    0.0000 C=    0.0000
 XYZ=   -0.6921    3.6463  -12.3829 Q=    0.4100 A=    0.0000 R=    0.0000 C=    0.0000
 XYZ=   -8.4920   -9.1126    0.5295 Q=   -0.8200 A=    0.0000 R=    0.0000 C=    0.0000
 XYZ=   -9.2100   -8.4385    0.3558 Q=    0.4100 A=    0.0000 R=    0.0000 C=    0.0000
 XYZ=   -7.7749   -8.6987    1.0902 Q=    0.4100 A=    0.0000 R=    0.0000 C=    0.0000
 XYZ=    1.7726    5.5470   10.0111 Q=   -0.8200 A=    0.0000 R=    0.0000 C=    0.0000
 XYZ=    0.9116    5.6423   10.5108 Q=    0.4100 A=    0.0000 R=    0.0000 C=    0.0000
 XYZ=    2.0894    4.6003   10.0705 Q=    0.4100 A=    0.0000 R=    0.0000 C=    0.0000
 XYZ=    5.4777    5.5843    9.1853 Q=   -0.8200 A=    0.0000 R=    0.0000 C=    0.0000
 XYZ=    6.3023    6.0539    9.5010 Q=    0.4100 A=    0.0000 R=    0.0000 C=    0.0000
 XYZ=    5.5255    5.4569    8.1946 Q=    0.4100 A=    0.0000 R=    0.0000 C=    0.0000
 XYZ=   -4.9720    5.1565    8.7095 Q=   -0.8200 A=    0.0000 R=    0.0000 C=    0.0000
 XYZ=   -5.6357    5.8736    8.9225 Q=    0.4100 A=    0.0000 R=    0.0000 C=    0.0000
 XYZ=   -4.1312    5.5728    8.3634 Q=    0.4100 A=    0.0000 R=    0.0000 C=    0.0000
 XYZ=    9.0009    2.1905   -4.9853 Q=   -0.8200 A=    0.0000 R=    0.0000 C=    0.0000
 XYZ=    8.9558    3.1160   -4.6092 Q=    0.4100 A=    0.0000 R=    0.0000 C=    0.0000
 XYZ=    9.8445    1.7479   -4.6811 Q=    0.4100 A=    0.0000 R=    0.0000 C=    0.0000
 XYZ=    5.0704   -1.1149   10.0088 Q=   -0.8200 A=    0.0000 R=    0.0000 C=    0.0000
 XYZ=    5.7077   -0.4700    9.5869 Q=    0.4100 A=    0.0000 R=    0.0000 C=    0.0000
 XYZ=    5.5450   -1.9735   10.2031 Q=    0.4100 A=    0.0000 R=    0.0000 C=    0.0000
 XYZ=    2.6601   -2.0408  -10.8958 Q=   -0.8200 A=    0.0000 R=    0.0000 C=    0.0000
 XYZ=    3.5939   -2.0589  -10.5384 Q=    0.4100 A=    0.0000 R=    0.0000 C=    0.0000
 XYZ=    2.6852   -1.9135  -11.8874 Q=    0.4100 A=    0.0000 R=    0.0000 C=    0.0000
 XYZ=   -2.5722  -12.2547    2.0335 Q=   -0.8200 A=    0.0000 R=    0.0000 C=    0.0000
 XYZ=   -2.4193  -11.3110    2.3270 Q=    0.4100 A=    0.0000 R=    0.0000 C=    0.0000
 XYZ=   -2.0837  -12.4206    1.1767 Q=    0.4100 A=    0.0000 R=    0.0000 C=    0.0000
 XYZ=   -5.9762    1.6306  -10.6807 Q=   -0.8200 A=    0.0000 R=    0.0000 C=    0.0000
 XYZ=   -6.4662    1.3081   -9.8708 Q=    0.4100 A=    0.0000 R=    0.0000 C=    0.0000
 XYZ=   -6.6268    1.7848  -11.4244 Q=    0.4100 A=    0.0000 R=    0.0000 C=    0.0000
 XYZ=   -7.8229    1.1153    7.7976 Q=   -0.8200 A=    0.0000 R=    0.0000 C=    0.0000
 XYZ=   -7.8305    0.2699    7.2635 Q=    0.4100 A=    0.0000 R=    0.0000 C=    0.0000
 XYZ=   -7.0652    1.6937    7.4952 Q=    0.4100 A=    0.0000 R=    0.0000 C=    0.0000
 XYZ=   -2.2275    5.8162   10.4165 Q=   -0.8200 A=    0.0000 R=    0.0000 C=    0.0000
 XYZ=   -2.6234    6.6828   10.1127 Q=    0.4100 A=    0.0000 R=    0.0000 C=    0.0000
 XYZ=   -1.8727    5.3166    9.6262 Q=    0.4100 A=    0.0000 R=    0.0000 C=    0.0000
 XYZ=   -4.3747   -0.0698  -11.1055 Q=   -0.8200 A=    0.0000 R=    0.0000 C=    0.0000
 XYZ=   -5.0316    0.6551  -10.8980 Q=    0.4100 A=    0.0000 R=    0.0000 C=    0.0000
 XYZ=   -4.8656   -0.8917  -11.3943 Q=    0.4100 A=    0.0000 R=    0.0000 C=    0.0000
 XYZ=   -0.1114    0.2760  -12.5435 Q=   -0.8200 A=    0.0000 R=    0.0000 C=    0.0000
 XYZ=    0.4478   -0.0077  -11.7645 Q=    0.4100 A=    0.0000 R=    0.0000 C=    0.0000
 XYZ=   -1.0459    0.4544  -12.2355 Q=    0.4100 A=    0.0000 R=    0.0000 C=    0.0000
 XYZ=   -8.0530    5.4106    5.4700 Q=   -0.8200 A=    0.0000 R=    0.0000 C=    0.0000
 XYZ=   -7.5938    4.5223    5.4830 Q=    0.4100 A=    0.0000 R=    0.0000 C=    0.0000
 XYZ=   -7.5176    6.0703    5.9975 Q=    0.4100 A=    0.0000 R=    0.0000 C=    0.0000
 XYZ=    8.0825    5.8949   -5.3768 Q=   -0.8200 A=    0.0000 R=    0.0000 C=    0.0000
 XYZ=    8.4982    5.2368   -4.7489 Q=    0.4100 A=    0.0000 R=    0.0000 C=    0.0000
 XYZ=    8.2062    5.5811   -6.3183 Q=    0.4100 A=    0.0000 R=    0.0000 C=    0.0000
 XYZ=   -1.6073  -12.5066   -0.2246 Q=   -0.8200 A=    0.0000 R=    0.0000 C=    0.0000
 XYZ=   -2.2194  -12.1419   -0.9263 Q=    0.4100 A=    0.0000 R=    0.0000 C=    0.0000
 XYZ=   -1.1866  -13.3513   -0.5556 Q=    0.4100 A=    0.0000 R=    0.0000 C=    0.0000
 XYZ=   -9.5356    3.6250    2.0230 Q=   -0.8200 A=    0.0000 R=    0.0000 C=    0.0000
 XYZ=  -10.4727    3.9726    1.9877 Q=    0.4100 A=    0.0000 R=    0.0000 C=    0.0000
 XYZ=   -9.5271    2.7359    2.4807 Q=    0.4100 A=    0.0000 R=    0.0000 C=    0.0000
 XYZ=    8.3344    7.3404    4.9348 Q=   -0.8200 A=    0.0000 R=    0.0000 C=    0.0000
 XYZ=    8.9462    6.6305    5.2836 Q=    0.4100 A=    0.0000 R=    0.0000 C=    0.0000
 XYZ=    7.8215    6.9840    4.1537 Q=    0.4100 A=    0.0000 R=    0.0000 C=    0.0000
 XYZ=   -2.1991  -12.5190   -3.9504 Q=   -0.8200 A=    0.0000 R=    0.0000 C=    0.0000
 XYZ=   -1.5153  -11.8240   -4.1726 Q=    0.4100 A=    0.0000 R=    0.0000 C=    0.0000
 XYZ=   -2.6090  -12.8652   -4.7943 Q=    0.4100 A=    0.0000 R=    0.0000 C=    0.0000
 XYZ=    1.2031   -8.8594   -9.7267 Q=   -0.8200 A=    0.0000 R=    0.0000 C=    0.0000
 XYZ=    1.3650   -8.4247  -10.6127 Q=    0.4100 A=    0.0000 R=    0.0000 C=    0.0000
 XYZ=    1.5346   -8.2618   -8.9967 Q=    0.4100 A=    0.0000 R=    0.0000 C=    0.0000
 XYZ=    7.7921   -8.7344    0.3890 Q=   -0.8200 A=    0.0000 R=    0.0000 C=    0.0000
 XYZ=    7.7926   -8.1508    1.2011 Q=    0.4100 A=    0.0000 R=    0.0000 C=    0.0000
 XYZ=    7.9579   -9.6826    0.6600 Q=    0.4100 A=    0.0000 R=    0.0000 C=    0.0000
 XYZ=   10.6103   -1.1822   -3.0740 Q=   -0.8200 A=    0.0000 R=    0.0000 C=    0.0000
 XYZ=    9.8996   -1.2075   -2.3709 Q=    0.4100 A=    0.0000 R=    0.0000 C=    0.0000
 XYZ=   11.4625   -1.5479   -2.6997 Q=    0.4100 A=    0.0000 R=    0.0000 C=    0.0000
 XYZ=    9.2880   -1.5276   -4.9889 Q=   -0.8200 A=    0.0000 R=    0.0000 C=    0.0000
 XYZ=    9.8303   -1.3430   -4.1692 Q=    0.4100 A=    0.0000 R=    0.0000 C=    0.0000
 XYZ=    8.7643   -2.3696   -4.8594 Q=    0.4100 A=    0.0000 R=    0.0000 C=    0.0000
 XYZ=   -8.8400    1.6188   -8.4400 Q=   -0.8200 A=    0.0000 R=    0.0000 C=    0.0000
 XYZ=   -9.1323    2.1224   -9.2530 Q=    0.4100 A=    0.0000 R=    0.0000 C=    0.0000
 XYZ=   -8.8382    2.2326   -7.6505 Q=    0.4100 A=    0.0000 R=    0.0000 C=    0.0000
 XYZ=   -7.1843   -9.7094   -3.7556 Q=   -0.8200 A=    0.0000 R=    0.0000 C=    0.0000
 XYZ=   -6.9364  -10.5455   -3.2662 Q=    0.4100 A=    0.0000 R=    0.0000 C=    0.0000
 XYZ=   -7.7594   -9.9406   -4.5404 Q=    0.4100 A=    0.0000 R=    0.0000 C=    0.0000
 XYZ=    0.5883   -0.9686   11.9488 Q=   -0.8200 A=    0.0000 R=    0.0000 C=    0.0000
 XYZ=    0.2754   -1.5468   11.1952 Q=    0.4100 A=    0.0000 R=    0.0000 C=    0.0000
 XYZ=   -0.2029   -0.6009   12.4375 Q=    0.4100 A=    0.0000 R=    0.0000 C=    0.0000
 XYZ=    0.0077   12.9274   -0.4444 Q=   -0.8200 A=    0.0000 R=    0.0000 C=    0.0000
 XYZ=    0.6333   12.1551   -0.3336 Q=    0.4100 A=    0.0000 R=    0.0000 C=    0.0000
 XYZ=   -0.7372   12.8507    0.2184 Q=    0.4100 A=    0.0000 R=    0.0000 C=    0.0000
 XYZ=   -7.5623   -7.0603   -8.1793 Q=   -0.8200 A=    0.0000 R=    0.0000 C=    0.0000
 XYZ=   -6.5662   -7.1018   -8.1021 Q=    0.4100 A=    0.0000 R=    0.0000 C=    0.0000
 XYZ=   -7.8735   -6.1306   -7.9821 Q=    0.4100 A=    0.0000 R=    0.0000 C=    0.0000
 XYZ=   -2.3986   10.9768   -6.0240 Q=   -0.8200 A=    0.0000 R=    0.0000 C=    0.0000
 XYZ=   -1.9718   10.6987   -5.1635 Q=    0.4100 A=    0.0000 R=    0.0000 C=    0.0000
 XYZ=   -1.9168   11.7714   -6.3935 Q=    0.4100 A=    0.0000 R=    0.0000 C=    0.0000
 XYZ=    1.8463    2.4734   11.8819 Q=   -0.8200 A=    0.0000 R=    0.0000 C=    0.0000
 XYZ=    2.2628    2.8767   11.0671 Q=    0.4100 A=    0.0000 R=    0.0000 C=    0.0000
 XYZ=    2.3946    1.6941   12.1855 Q=    0.4100 A=    0.0000 R=    0.0000 C=    0.0000
 XYZ=   -7.0534   -5.4830    8.2132 Q=   -0.8200 A=    0.0000 R=    0.0000 C=    0.0000
 XYZ=   -6.9296   -5.3786    7.2264 Q=    0.4100 A=    0.0000 R=    0.0000 C=    0.0000
 XYZ=   -7.1512   -4.5811    8.6341 Q=    0.4100 A=    0.0000 R=    0.0000 C=    0.0000
 XYZ=   -0.1701  -12.1927   -6.2192 Q=   -0.8200 A=    0.0000 R=    0.0000 C=    0.0000
 XYZ=    0.3181  -13.0246   -5.9554 Q=    0.4100 A=    0.0000 R=    0.0000 C=    0.0000
 XYZ=   -0.3040  -11.6152   -5.4137 Q=    0.4100 A=    0.0000 R=    0.0000 C=    0.0000
 XYZ=  -11.9311   -0.2450   -1.9043 Q=   -0.8200 A=    0.0000 R=    0.0000 C=    0.0000
 XYZ=  -12.3414    0.6627   -1.8159 Q=    0.4100 A=    0.0000 R=    0.0000 C=    0.0000
 XYZ=  -11.0080   -0.2324   -1.5198 Q=    0.4100 A=    0.0000 R=    0.0000 C=    0.0000
 XYZ=   -9.1820   -8.0890   -3.2935 Q=   -0.8200 A=    0.0000 R=    0.0000 C=    0.0000
 XYZ=   -9.8403   -8.4174   -3.9709 Q=    0.4100 A=    0.0000 R=    0.0000 C=    0.0000
 XYZ=   -8.4789   -8.7850   -3.1474 Q=    0.4100 A=    0.0000 R=    0.0000 C=    0.0000
 XYZ=   -1.8876   -9.8458   -8.0743 Q=   -0.8200 A=    0.0000 R=    0.0000 C=    0.0000
 XYZ=   -1.3097   -9.9497   -8.8837 Q=    0.4100 A=    0.0000 R=    0.0000 C=    0.0000
 XYZ=   -2.2886  -10.7302   -7.8353 Q=    0.4100 A=    0.0000 R=    0.0000 C=    0.0000
 XYZ=   10.7571   -3.8421    1.5167 Q=   -0.8200 A=    0.0000 R=    0.0000 C=    0.0000
 XYZ=    9.8979   -4.3242    1.6885 Q=    0.4100 A=    0.0000 R=    0.0000 C=    0.0000
 XYZ=   11.3877   -4.4477    1.0314 Q=    0.4100 A=    0.0000 R=    0.0000 C=    0.0000
 XYZ=    0.7344   10.8121    6.6260 Q=   -0.8200 A=    0.0000 R=    0.0000 C=    0.0000
 XYZ=    0.6207    9.8301    6.4752 Q=    0.4100 A=    0.0000 R=    0.0000 C=    0.0000
 XYZ=    1.1041   11.2357    5.7990 Q=    0.4100 A=    0.0000 R=    0.0000 C=    0.0000
 XYZ=   -0.2629    3.0897   11.3116 Q=   -0.8200 A=    0.0000 R=    0.0000 C=    0.0000
 XYZ=    0.5642    2.6561   11.6692 Q=    0.4100 A=    0.0000 R=    0.0000 C=    0.0000
 XYZ=   -0.0791    4.0547   11.1247 Q=    0.4100 A=    0.0000 R=    0.0000 C=    0.0000
 XYZ=   -1.0276    7.4245  -10.2620 Q=   -0.8200 A=    0.0000 R=    0.0000 C=    0.0000
 XYZ=   -0.5758    8.3023  -10.1028 Q=    0.4100 A=    0.0000 R=    0.0000 C=    0.0000
 XYZ=   -0.3763    6.6815  -10.1072 Q=    0.4100 A=    0.0000 R=    0.0000 C=    0.0000
[...]
    39  O    0.000000  -0.000001   0.000000   0.000000   0.000000   0.000000
    40  H    0.000000   0.000000   0.000000   0.000000   0.000000   0.000000
    41  H    0.000000   0.000000   0.000000   0.000000   0.000000   0.000000
    42  O    0.000573  -0.002994   0.000000   0.000000   0.000000   0.000000
    43  H    0.007197  -0.001140   0.000000   0.000000   0.000000   0.000000
    44  H    0.000093  -0.000828   0.000000   0.000000   0.000000   0.000000
    45  O   -0.000009   0.000001   0.000000   0.000000   0.000000   0.000000
    46  H    0.000002   0.000000   0.000000   0.000000   0.000000   0.000000
    47  H    0.000000   0.000000   0.000000   0.000000   0.000000   0.000000
    48  O    0.002545   0.024199   0.000009   0.000000   0.000000   0.000000
    49  H   -0.000035  -0.000870   0.000000   0.000000   0.000000   0.000000
    50  H   -0.000032   0.001247   0.000000   0.000000   0.000000   0.000000
              31         32         33         34         35         36
     1  C   -0.000012   0.000001  -0.001231  -0.000266   0.000343   0.000061
     2  H    0.000000   0.000000  -0.000058   0.000003  -0.000011   0.000003
     3  H    0.000000   0.000000   0.000000   0.000000   0.000000   0.000000
     4  C    0.000057   0.000010   0.000817   0.000262  -0.000373   0.001935
     5  H    0.000000   0.000000   0.000000   0.000000   0.000000   0.000000
     6  C    0.000019   0.000008  -0.000168   0.000080   0.000455   0.000351
     7  H    0.000000   0.000000   0.000000   0.000000   0.000000  -0.000024
     8  O   -0.000016   0.000007  -0.000165  -0.000002  -0.000285  -0.002988
     9  O    0.000271  -0.000013  -0.000067   0.000000  -0.000048  -0.001713
    10  H    0.000000   0.000000  -0.000002   0.000000   0.000001   0.000251
    11  H    0.000000   0.000000   0.000002   0.000000   0.000000   0.000580
    12  O   -0.000001   0.000000  -0.112275   0.002207   0.011509   0.000056
    13  H    0.000000   0.000000   0.004569  -0.000679  -0.002164  -0.000002
    14  H    0.000000   0.000000   0.005602  -0.000043   0.002752   0.000014
    15  O    0.017555  -0.000301   0.000002   0.000000  -0.000006  -0.098736
    16  H    0.000414   0.000006   0.000000   0.000000   0.000000   0.007557
    17  H   -0.000270   0.000013   0.000000   0.000000   0.000000   0.000847
    18  O    0.000000   0.000000   0.000294   0.000020  -0.000001   0.000000
    19  H    0.000000   0.000000  -0.000001   0.000000   0.000000   0.000000
    20  H    0.000000   0.000000  -0.000001   0.000000   0.000000   0.000000
    21  O    0.000000   0.000000  -0.006989   0.000724  -0.001357   0.000003
    22  H    0.000000   0.000000   0.001659  -0.000063   0.000007   0.000000
    23  H    0.000000   0.000000   0.000306   0.000026   0.000005   0.000000
    24  O    0.000000   0.000000   0.000001   0.000000   0.000000   0.000000
    25  H    0.000000   0.000000   0.000000   0.000000   0.000000   0.000000
    26  H    0.000000   0.000000   0.000000   0.000000   0.000000   0.000000
    27  O   -0.000001   0.000000   0.000000   0.000000   0.000000   0.000103
    28  H    0.000000   0.000000   0.000000   0.000000   0.000000  -0.000023
    29  H    0.000000   0.000000   0.000000   0.000000   0.000000   0.000120
    30  O    0.206057   0.221150   0.000000   0.000000   0.000000  -0.001700
    31  H    0.243780  -0.006422   0.000000   0.000000   0.000000   0.000068
    32  H   -0.006422   0.158056   0.000000   0.000000   0.000000   0.000074
    33  O    0.000000   0.000000   9.002634   0.210136   0.149272  -0.000022
    34  H    0.000000   0.000000   0.210136   0.218931  -0.008957   0.000000
    35  H    0.000000   0.000000   0.149272  -0.008957   0.214146   0.000006
    36  O    0.000068   0.000074  -0.000022   0.000000   0.000006   9.058330
    37  H    0.000001  -0.000008   0.000007   0.000000  -0.000001   0.202096
    38  H   -0.000095   0.000010   0.000001   0.000000   0.000000   0.103972
    39  O    0.000000   0.000000  -0.004716  -0.000004   0.000358   0.000000
    40  H    0.000000   0.000000   0.000595   0.000018  -0.000039   0.000000
    41  H    0.000000   0.000000   0.000085   0.000001   0.000001   0.000000
    42  O    0.000000   0.000000   0.000000   0.000000   0.000000   0.000000
    43  H    0.000000   0.000000   0.000000   0.000000   0.000000   0.000000
    44  H    0.000000   0.000000   0.000000   0.000000   0.000000   0.000000
    45  O    0.000000   0.000000   0.000000   0.000000   0.000000   0.000000
    46  H    0.000000   0.000000   0.000000   0.000000   0.000000   0.000000
    47  H    0.000000   0.000000   0.000000   0.000000   0.000000   0.000000
    48  O    0.000000   0.000000   0.000000   0.000000   0.000000   0.000000
    49  H    0.000000   0.000000   0.000000   0.000000   0.000000   0.000000
    50  H    0.000000   0.000000   0.000000   0.000000   0.000000   0.000000
              37         38         39         40         41         42
     1  C    0.000011   0.000003   0.000946   0.000162  -0.000014  -0.000090
     2  H    0.000000   0.000000  -0.000002   0.000000   0.000000   0.000000
     3  H    0.000000   0.000000   0.000000   0.000000   0.000000  -0.000002
     4  C   -0.000079   0.000019  -0.000235  -0.000032  -0.000002   0.000539
     5  H    0.000000   0.000000   0.000000   0.000000   0.000000   0.000001
     6  C    0.000068  -0.000398  -0.000195  -0.000098   0.000009  -0.000414
     7  H    0.000000   0.000000   0.000000   0.000000   0.000000   0.000000
     8  O   -0.000069   0.002523  -0.000033   0.000009   0.000000   0.000000
     9  O   -0.000254   0.005853   0.000003  -0.000001   0.000000   0.000000
    10  H   -0.000009  -0.000496   0.000001   0.000000   0.000000   0.000000
    11  H   -0.000038  -0.000438   0.000000   0.000000   0.000000   0.000000
    12  O    0.000012   0.000018  -0.006098  -0.002276   0.000238  -0.000001
    13  H    0.000000   0.000000   0.000618  -0.001195   0.000003   0.000001
    14  H   -0.000003  -0.000011   0.000196   0.000069   0.000000   0.000000
    15  O    0.002953   0.049306   0.000000   0.000000   0.000000   0.000000
    16  H   -0.000183  -0.001794   0.000000   0.000000   0.000000   0.000000
    17  H    0.000033  -0.004784   0.000000   0.000000   0.000000   0.000000
    18  O    0.000000   0.000000  -0.001452   0.002043  -0.000222  -0.008219
    19  H    0.000000   0.000000  -0.000436   0.000058   0.000016   0.003294
    20  H    0.000000   0.000000  -0.000016   0.000034   0.000001   0.000362
    21  O    0.000000   0.000000  -0.082690   0.043953   0.003544   0.000464
    22  H    0.000000   0.000000  -0.001670  -0.004193  -0.000220  -0.000014
    23  H    0.000000   0.000000   0.004527   0.000229  -0.000116   0.000068
    24  O    0.000000   0.000000   0.000063  -0.000005  -0.000001  -0.118365
    25  H    0.000000   0.000000   0.000000   0.000000   0.000000   0.000573
    26  H    0.000000   0.000000  -0.000001   0.000000   0.000000  -0.002994
    27  O    0.000000   0.000021   0.000000   0.000000   0.000000   0.000000
    28  H    0.000000   0.000001   0.000000   0.000000   0.000000   0.000000
    29  H    0.000000  -0.000007   0.000000   0.000000   0.000000   0.000000
    30  O    0.000099  -0.000838   0.000000   0.000000   0.000000   0.000000
    31  H    0.000001  -0.000095   0.000000   0.000000   0.000000   0.000000
    32  H   -0.000008   0.000010   0.000000   0.000000   0.000000   0.000000
    33  O    0.000007   0.000001  -0.004716   0.000595   0.000085   0.000000
    34  H    0.000000   0.000000  -0.000004   0.000018   0.000001   0.000000
    35  H   -0.000001   0.000000   0.000358  -0.000039   0.000001   0.000000
    36  O    0.202096   0.103972   0.000000   0.000000   0.000000   0.000000
    37  H    0.163554  -0.002572   0.000000   0.000000   0.000000   0.000000
    38  H   -0.002572   0.239066   0.000000   0.000000   0.000000   0.000000
    39  O    0.000000   0.000000   8.851812   0.150820   0.226091   0.000009
    40  H    0.000000   0.000000   0.150820   0.227682  -0.006313   0.000000
    41  H    0.000000   0.000000   0.226091  -0.006313   0.228944   0.000000
    42  O    0.000000   0.000000   0.000009   0.000000   0.000000   9.082317
    43  H    0.000000   0.000000   0.000000  -0.000001   0.000000   0.136510
    44  H    0.000000   0.000000   0.000000   0.000000   0.000000   0.196184
    45  O    0.000000   0.000000   0.000000   0.000000   0.000000  -0.000019
    46  H    0.000000   0.000000   0.000000   0.000000   0.000000  -0.000038
    47  H    0.000000   0.000000   0.000000   0.000000   0.000000   0.000000
    48  O    0.000000   0.000000  -0.000073   0.000009   0.000000  -0.000903
    49  H    0.000000   0.000000   0.000000   0.000000   0.000000  -0.000039
    50  H    0.000000   0.000000   0.000019  -0.000001   0.000000   0.000068
              43         44         45         46         47         48
     1  C   -0.000582   0.000015   0.000450   0.000132  -0.000008  -0.000600
     2  H    0.000000   0.000000   0.000000   0.000000   0.000000   0.000000
     3  H   -0.000001   0.000000  -0.000053  -0.000003   0.000000  -0.000001
     4  C    0.001094  -0.000013  -0.000030  -0.000030  -0.000029   0.002132
     5  H   -0.000003   0.000000  -0.000008   0.000000   0.000000  -0.000029
     6  C   -0.000159   0.000013   0.001498   0.000058  -0.000030  -0.001260
     7  H    0.000000   0.000000   0.000000   0.000000   0.000000   0.000007
     8  O   -0.000001   0.000000  -0.000001   0.000000   0.000000   0.000010
     9  O    0.000000   0.000000   0.000000   0.000000   0.000000   0.000005
    10  H    0.000000   0.000000   0.000000   0.000000   0.000000  -0.000005
    11  H    0.000000   0.000000   0.000000   0.000000   0.000000   0.000000
    12  O   -0.000001   0.000000   0.000000   0.000000   0.000000   0.000012
    13  H    0.000000   0.000000   0.000000   0.000000   0.000000   0.000001
    14  H    0.000000   0.000000   0.000000   0.000000   0.000000  -0.000001
    15  O    0.000000   0.000000   0.000000   0.000000   0.000000   0.000000
    16  H    0.000000   0.000000   0.000000   0.000000   0.000000   0.000000
    17  H    0.000000   0.000000   0.000000   0.000000   0.000000   0.000000
    18  O    0.016679  -0.002153  -0.000005  -0.000001   0.000000  -0.007495
    19  H    0.000654  -0.000340   0.000000   0.000000   0.000000  -0.000101
    20  H    0.001587  -0.000462   0.000000   0.000000   0.000000   0.002753
    21  O    0.000237  -0.000009   0.000000   0.000000   0.000000  -0.000297
    22  H   -0.000001   0.000000   0.000000   0.000000   0.000000   0.000003
    23  H    0.000040   0.000005   0.000000   0.000000   0.000000   0.000013
    24  O   -0.028780   0.008756   0.000042   0.000009  -0.000001  -0.091031
    25  H    0.007197   0.000093  -0.000009   0.000002   0.000000   0.002545
    26  H   -0.001140  -0.000828   0.000001   0.000000   0.000000   0.024199
    27  O    0.000000   0.000000   0.000000   0.000000   0.000000   0.000009
    28  H    0.000000   0.000000   0.000000   0.000000   0.000000   0.000000
    29  H    0.000000   0.000000   0.000000   0.000000   0.000000   0.000000
    30  O    0.000000   0.000000   0.000000   0.000000   0.000000   0.000000
    31  H    0.000000   0.000000   0.000000   0.000000   0.000000   0.000000
    32  H    0.000000   0.000000   0.000000   0.000000   0.000000   0.000000
    33  O    0.000000   0.000000   0.000000   0.000000   0.000000   0.000000
    34  H    0.000000   0.000000   0.000000   0.000000   0.000000   0.000000
    35  H    0.000000   0.000000   0.000000   0.000000   0.000000   0.000000
    36  O    0.000000   0.000000   0.000000   0.000000   0.000000   0.000000
    37  H    0.000000   0.000000   0.000000   0.000000   0.000000   0.000000
    38  H    0.000000   0.000000   0.000000   0.000000   0.000000   0.000000
    39  O    0.000000   0.000000   0.000000   0.000000   0.000000  -0.000073
    40  H   -0.000001   0.000000   0.000000   0.000000   0.000000   0.000009
    41  H    0.000000   0.000000   0.000000   0.000000   0.000000   0.000000
    42  O    0.136510   0.196184  -0.000019  -0.000038   0.000000  -0.000903
    43  H    0.262788  -0.006602   0.000001   0.000003   0.000000   0.000933
    44  H   -0.006602   0.180943   0.000000   0.000000   0.000000  -0.000197
    45  O    0.000001   0.000000   8.693980   0.233221   0.221429   0.000000
    46  H    0.000003   0.000000   0.233221   0.214819  -0.009552   0.000000
    47  H    0.000000   0.000000   0.221429  -0.009552   0.196704   0.000000
    48  O    0.000933  -0.000197   0.000000   0.000000   0.000000   8.784574
    49  H   -0.000044   0.000000   0.000000   0.000000   0.000000   0.209215
    50  H    0.000008   0.000000   0.000000   0.000000   0.000000   0.221416
              49         50
     1  C    0.000016   0.000011
     2  H    0.000000   0.000000
     3  H    0.000000   0.000000
     4  C    0.000040  -0.000025
     5  H    0.000000   0.000000
     6  C   -0.000070   0.000030
     7  H    0.000000   0.000000
     8  O   -0.000001  -0.000002
     9  O    0.000000  -0.000002
    10  H    0.000000   0.000000
    11  H    0.000000   0.000000
    12  O    0.000000  -0.000002
    13  H    0.000000   0.000000
    14  H    0.000000   0.000000
    15  O    0.000000   0.000000
    16  H    0.000000   0.000000
    17  H    0.000000   0.000000
    18  O    0.000131   0.000062
    19  H    0.000000   0.000002
    20  H   -0.000008  -0.000098
    21  O   -0.000001   0.000020
    22  H    0.000000   0.000000
    23  H    0.000000  -0.000003
    24  O    0.000801   0.003189
    25  H   -0.000035  -0.000032
    26  H   -0.000870   0.001247
    27  O    0.000000   0.000000
    28  H    0.000000   0.000000
    29  H    0.000000   0.000000
    30  O    0.000000   0.000000
    31  H    0.000000   0.000000
    32  H    0.000000   0.000000
    33  O    0.000000   0.000000
    34  H    0.000000   0.000000
    35  H    0.000000   0.000000
    36  O    0.000000   0.000000
    37  H    0.000000   0.000000
    38  H    0.000000   0.000000
    39  O    0.000000   0.000019
    40  H    0.000000  -0.000001
    41  H    0.000000   0.000000
    42  O   -0.000039   0.000068
    43  H   -0.000044   0.000008
    44  H    0.000000   0.000000
    45  O    0.000000   0.000000
    46  H    0.000000   0.000000
    47  H    0.000000   0.000000
    48  O    0.209215   0.221416
    49  H    0.154814  -0.005760
    50  H   -0.005760   0.241917
 Mulliken charges:
               1
     1  C   -0.379743
     2  H    0.275493
     3  H    0.256829
     4  C    0.053047
     5  H    0.226136
     6  C   -0.122832
     7  H    0.231379
     8  O   -0.301627
     9  O   -1.438658
    10  H    0.569018
    11  H    0.630691
    12  O   -1.124744
    13  H    0.646847
    14  H    0.521242
    15  O   -1.268522
    16  H    0.660982
    17  H    0.613434
    18  O   -1.196365
    19  H    0.593535
    20  H    0.612464
    21  O   -1.335936
    22  H    0.652643
    23  H    0.663716
    24  O   -1.195210
    25  H    0.593493
    26  H    0.650804
    27  O   -1.216195
    28  H    0.606121
    29  H    0.591300
    30  O   -1.150603
    31  H    0.538595
    32  H    0.627409
    33  O   -1.250289
    34  H    0.577604
    35  H    0.634386
    36  O   -1.271221
    37  H    0.634381
    38  H    0.610641
    39  O   -1.137842
    40  H    0.588472
    41  H    0.547956
    42  O   -1.289292
    43  H    0.609584
    44  H    0.624595
    45  O   -1.150498
    46  H    0.561381
    47  H    0.591486
    48  O   -1.145838
    49  H    0.641812
    50  H    0.537937
 Sum of Mulliken charges =   0.00000
 Mulliken charges with hydrogens summed into heavy atoms:
               1
     1  C    0.152579
     4  C    0.279183
     6  C    0.108547
     8  O   -0.301627
     9  O   -0.238949
    12  O    0.043345
    15  O    0.005894
    18  O    0.009634
    21  O   -0.019576
    24  O    0.049087
    27  O   -0.018774
    30  O    0.015401
    33  O   -0.038298
    36  O   -0.026199
    39  O   -0.001414
    42  O   -0.055114
    45  O    0.002370
    48  O    0.033912
 Electronic spatial extent (au):  <R**2>=          12916.1079
 Charge=              0.0000 electrons
 Dipole moment (field-independent basis, Debye):
    X=             13.9557    Y=             -7.0281    Z=             -2.1723  Tot=             15.7757
 Quadrupole moment (field-independent basis, Debye-Ang):
   XX=           -121.0754   YY=           -167.5949   ZZ=           -114.7802
   XY=             25.3283   XZ=              6.1917   YZ=             19.6470
 Traceless Quadrupole moment (field-independent basis, Debye-Ang):
   XX=             13.4081   YY=            -33.1114   ZZ=             19.7033
   XY=             25.3283   XZ=              6.1917   YZ=             19.6470
 Octapole moment (field-independent basis, Debye-Ang**2):
  XXX=             21.3764  YYY=            -49.4820  ZZZ=            -61.9492  XYY=            141.4240
  XXY=             -7.5911  XXZ=           -104.5739  XZZ=            251.8003  YZZ=             19.5957
  YYZ=             19.7592  XYZ=             16.6339
 Hexadecapole moment (field-independent basis, Debye-Ang**3):
 XXXX=          -9293.4024 YYYY=          -5180.0856 ZZZZ=          -1948.8679 XXXY=            396.0468
 XXXZ=            661.9876 YYYX=            619.2713 YYYZ=            177.9838 ZZZX=            375.1307
 ZZZY=            118.2155 XXYY=          -1626.1734 XXZZ=          -1890.8883 YYZZ=          -1238.7370
 XXYZ=            213.0694 YYXZ=              6.1228 ZZXY=           -285.8134
 N-N= 1.086855614379D+03 E-N=-6.137664526589D+03  KE= 1.249884604505D+03
 Leave Link  601 at Fri Sep 14 19:01:25 2018, MaxMem=    33554432 cpu:         5.2
 (Enter /usr/local/pacerepov1/gaussian/G09D01LINDA/g09/l9999.exe)

 Test job not archived.
 1\1\GINC-RICH133-C38-30-L\SP\RLC-wPBE TD-FC\6-31+G(d)\C3H32O15\ROOT\14
 -Sep-2018\0\\#p td=(nstates=15)/6-31+g(d) lc-wpbe charge\\Acroleina in
  Water\\0,1\C,0,0.485154,0.480443,-1.430142\H,0,1.461403,0.187773,-1.0
 55732\H,0,0.429244,0.878853,-2.437062\C,0,-0.605127,0.346563,-0.658432
 \H,0,-1.591686,0.632893,-1.012412\C,0,-0.508516,-0.199107,0.712798\H,0
 ,-1.458487,-0.272107,1.272438\O,0,0.544883,-0.561317,1.236519\O,0,-0.1
 85942,-0.970853,2.961926\H,0,0.058338,-0.421943,2.162516\H,0,0.286838,
 -0.614613,3.767916\O,0,3.068238,1.648327,1.237286\H,0,2.892818,2.46622
 7,0.689256\H,0,2.199478,1.262947,1.548366\O,0,1.179828,-2.954453,2.759
 616\H,0,0.506298,-2.218653,2.830506\H,0,0.780658,-3.805613,3.100496\O,
 0,0.576308,4.410467,-0.762524\H,0,0.943998,5.270667,-1.115924\H,0,-0.4
 05582,4.366917,-0.947054\O,0,2.744788,3.522167,-0.131074\H,0,3.427568,
 3.837577,-0.790114\H,0,1.843438,3.865867,-0.394694\O,0,-1.896892,4.519
 687,-0.962214\H,0,-2.666582,3.948417,-1.247294\H,0,-2.044602,4.834157,
 -0.024494\O,0,-2.573892,-1.136243,3.767556\H,0,-2.387592,-1.809803,4.4
 82856\H,0,-1.717842,-0.883553,3.316606\O,0,2.904868,-5.228263,1.600226
 \H,0,2.106918,-4.630303,1.676366\H,0,3.356208,-5.296613,2.489976\O,0,5
 .249897,1.769277,0.636536\H,0,5.350408,1.657357,-0.352114\H,0,4.319568
 ,1.521607,0.907096\O,0,2.652608,-1.914223,4.392806\H,0,3.532248,-1.698
 043,3.969076\H,0,2.070418,-2.385563,3.730276\O,0,3.388688,5.206817,1.5
 26346\H,0,2.981258,4.642757,0.808096\H,0,3.877288,5.974007,1.110726\O,
 0,-1.409672,6.239947,-2.313644\H,0,-1.596312,5.448267,-1.731874\H,0,-1
 .258692,7.045957,-1.741284\O,0,-2.596542,1.907197,-5.587754\H,0,-2.258
 432,2.586147,-4.935994\H,0,-2.573112,2.290877,-6.510954\O,0,-2.220882,
 5.003887,1.403126\H,0,-3.126312,4.786727,1.767966\H,0,-1.556412,5.0233
 77,2.150236\\Version=EM64L-G09RevD.01\State=1-A\HF=-1758.7143085\RMSD=
 3.204e-09\PG=C01 [X(C3H32O15)]\\@


 A BIRD IN THE HAND IS SAFER THAN ONE OVERHEAD.

                       -- NEWTON'S SEVENTH LAW
 Job cpu time:       0 days  2 hours  3 minutes 58.9 seconds.
 File lengths (MBytes):  RWF=    792 Int=      0 D2E=      0 Chk=     96 Scr=      2
 Normal termination of Gaussian 09 at Fri Sep 14 19:01:33 2018.
