 Entering Gaussian System, Link 0=g09
 Input=Acroleina_water_15_25c.gjf
 Output=Acroleina_water_15_25c.log
 Initial command:
 /usr/local/pacerepov1/gaussian/G09D01LINDA/g09/l1.exe /nv/hp18/holiveira7/scratch/22411848/Gau-10068.inp -scrdir=/nv/hp18/holiveira7/scratch/22411848/
 Entering Link 1 = /usr/local/pacerepov1/gaussian/G09D01LINDA/g09/l1.exe PID=     10069.
  
 Copyright (c) 1988,1990,1992,1993,1995,1998,2003,2009,2013,
            Gaussian, Inc.  All Rights Reserved.
  
 This is part of the Gaussian(R) 09 program.  It is based on
 the Gaussian(R) 03 system (copyright 2003, Gaussian, Inc.),
 the Gaussian(R) 98 system (copyright 1998, Gaussian, Inc.),
 the Gaussian(R) 94 system (copyright 1995, Gaussian, Inc.),
 the Gaussian 92(TM) system (copyright 1992, Gaussian, Inc.),
 the Gaussian 90(TM) system (copyright 1990, Gaussian, Inc.),
 the Gaussian 88(TM) system (copyright 1988, Gaussian, Inc.),
 the Gaussian 86(TM) system (copyright 1986, Carnegie Mellon
 University), and the Gaussian 82(TM) system (copyright 1983,
 Carnegie Mellon University). Gaussian is a federally registered
 trademark of Gaussian, Inc.
  
 This software contains proprietary and confidential information,
 including trade secrets, belonging to Gaussian, Inc.
  
 This software is provided under written license and may be
 used, copied, transmitted, or stored only in accord with that
 written license.
  
 The following legend is applicable only to US Government
 contracts under FAR:
  
                    RESTRICTED RIGHTS LEGEND
  
 Use, reproduction and disclosure by the US Government is
 subject to restrictions as set forth in subparagraphs (a)
 and (c) of the Commercial Computer Software - Restricted
 Rights clause in FAR 52.227-19.
  
 Gaussian, Inc.
 340 Quinnipiac St., Bldg. 40, Wallingford CT 06492
  
  
 ---------------------------------------------------------------
 Warning -- This program may not be used in any manner that
 competes with the business of Gaussian, Inc. or will provide
 assistance to any competitor of Gaussian, Inc.  The licensee
 of this program is prohibited from giving any competitor of
 Gaussian, Inc. access to this program.  By using this program,
 the user acknowledges that Gaussian, Inc. is engaged in the
 business of creating and licensing software in the field of
 computational chemistry and represents and warrants to the
 licensee that it is not a competitor of Gaussian, Inc. and that
 it will not use this program in any manner prohibited above.
 ---------------------------------------------------------------
  

 Cite this work as:
 Gaussian 09, Revision D.01,
 M. J. Frisch, G. W. Trucks, H. B. Schlegel, G. E. Scuseria, 
 M. A. Robb, J. R. Cheeseman, G. Scalmani, V. Barone, B. Mennucci, 
 G. A. Petersson, H. Nakatsuji, M. Caricato, X. Li, H. P. Hratchian, 
 A. F. Izmaylov, J. Bloino, G. Zheng, J. L. Sonnenberg, M. Hada, 
 M. Ehara, K. Toyota, R. Fukuda, J. Hasegawa, M. Ishida, T. Nakajima, 
 Y. Honda, O. Kitao, H. Nakai, T. Vreven, J. A. Montgomery, Jr., 
 J. E. Peralta, F. Ogliaro, M. Bearpark, J. J. Heyd, E. Brothers, 
 K. N. Kudin, V. N. Staroverov, T. Keith, R. Kobayashi, J. Normand, 
 K. Raghavachari, A. Rendell, J. C. Burant, S. S. Iyengar, J. Tomasi, 
 M. Cossi, N. Rega, J. M. Millam, M. Klene, J. E. Knox, J. B. Cross, 
 V. Bakken, C. Adamo, J. Jaramillo, R. Gomperts, R. E. Stratmann, 
 O. Yazyev, A. J. Austin, R. Cammi, C. Pomelli, J. W. Ochterski, 
 R. L. Martin, K. Morokuma, V. G. Zakrzewski, G. A. Voth, 
 P. Salvador, J. J. Dannenberg, S. Dapprich, A. D. Daniels, 
 O. Farkas, J. B. Foresman, J. V. Ortiz, J. Cioslowski, 
 and D. J. Fox, Gaussian, Inc., Wallingford CT, 2013.
 
 ******************************************
 Gaussian 09:  EM64L-G09RevD.01 24-Apr-2013
                14-Sep-2018 
 ******************************************
 %chk=Acrolina_Din_25.chk
 %nprocshared=10
 Will use up to   10 processors via shared memory.
 -------------------------------------------
 #p td=(nstates=15)/6-31+g(d) lc-wpbe charge
 -------------------------------------------
 1/18=10,28=-2,38=1,125=101/1;
 2/12=2,17=6,18=5,40=1/2;
 3/5=1,6=6,7=11,11=9,16=1,25=1,30=1,74=-41/1,2,8,3;
 4//1;
 5/5=2,38=5/2;
 8/6=1,10=2,108=15/1;
 9/41=15,42=1,70=2/14;
 6/7=2,8=2,9=2,10=2/1;
 99/5=1,9=1/99;
 Leave Link    1 at Fri Sep 14 16:52:45 2018, MaxMem=           0 cpu:         6.3
 (Enter /usr/local/pacerepov1/gaussian/G09D01LINDA/g09/l101.exe)
 ------------------
 Acroleina in Water
 ------------------
 Symbolic Z-matrix:
 Charge =  0 Multiplicity = 1
 C                     0.48515   0.48044  -1.43014 
 H                     1.4614    0.18777  -1.05573 
 H                     0.42924   0.87885  -2.43706 
 C                    -0.60513   0.34656  -0.65843 
 H                    -1.59169   0.63289  -1.01241 
 C                    -0.50852  -0.19911   0.7128 
 H                    -1.45849  -0.27211   1.27244 
 O                     0.54488  -0.56132   1.23652 
 O                    -1.12157  -0.73801   3.27143 
 H                    -0.75141  -0.17884   2.52959 
 H                    -0.70281  -0.463     4.13691 
 O                     2.37947   2.13504   1.43162 
 H                     2.02965   3.02761   1.14698 
 H                     1.61406   1.53941   1.67537 
 O                    -0.51812   4.34676  -0.1626 
 H                    -0.15369   5.26771  -0.30072 
 H                    -1.51323   4.36403  -0.26011 
 O                     1.40514  -4.39029   1.85488 
 H                     0.74157  -3.73437   2.21477 
 H                     1.6423   -5.04983   2.56819 
 O                     0.0584   -2.73851   3.03539 
 H                    -0.61291  -2.0166    2.86736 
 H                    -0.38823  -3.51      3.48852 
 O                     1.75959   4.36418   0.69639 
 H                     2.18395   4.80435  -0.09492 
 H                     0.77611   4.27329   0.5396 
 O                     3.71538  -2.60547  -3.71202 
 H                     4.4909   -2.34291  -3.13782 
 H                     3.11042  -1.81876  -3.83518 
 O                     3.28457  -4.67323   0.45493 
 H                     2.38519  -4.49783   0.85544 
 H                     3.2041   -5.37931  -0.24867 
 O                     2.60328  -0.56992  -4.06345 
 H                     2.1162   -0.01579  -4.73856 
 H                     3.43889  -0.09675  -3.78432 
 O                     1.80204  -1.83804   4.34778 
 H                     2.51487  -1.30032   3.89747 
 H                     1.1586   -2.17892   3.66233 
 O                    -3.49706  -1.3292    3.65151 
 H                    -3.32277  -1.84455   4.49061 
 H                    -2.65016  -0.89424   3.34554 
 O                    -2.92942   4.80118  -0.43072 
 H                    -3.70341   4.33601  -0.8604 
 H                    -3.13415   4.96727   0.53392 
 O                     3.73899  -4.87235  -3.01509 
 H                     3.67445  -3.88621  -3.16809 
 H                     3.57154  -5.35469  -3.87497 
 O                     0.16045  -0.27883   5.32146 
 H                     0.70348   0.2489    5.97464 
 H                     0.73437  -0.98257   4.90268 
 
 NAtoms=     50 NQM=       50 NQMF=       0 NMMI=      0 NMMIF=      0
                NMic=       0 NMicF=      0.
                    Isotopes and Nuclear Properties:
 (Nuclear quadrupole moments (NQMom) in fm**2, nuclear magnetic moments (NMagM)
  in nuclear magnetons)

  Atom         1           2           3           4           5           6           7           8           9          10
 IAtWgt=          12           1           1          12           1          12           1          16          16           1
 AtmWgt=  12.0000000   1.0078250   1.0078250  12.0000000   1.0078250  12.0000000   1.0078250  15.9949146  15.9949146   1.0078250
 NucSpn=           0           1           1           0           1           0           1           0           0           1
 AtZEff=   0.0000000   0.0000000   0.0000000   0.0000000   0.0000000   0.0000000   0.0000000   0.0000000   0.0000000   0.0000000
 NQMom=    0.0000000   0.0000000   0.0000000   0.0000000   0.0000000   0.0000000   0.0000000   0.0000000   0.0000000   0.0000000
 NMagM=    0.0000000   2.7928460   2.7928460   0.0000000   2.7928460   0.0000000   2.7928460   0.0000000   0.0000000   2.7928460
 AtZNuc=   6.0000000   1.0000000   1.0000000   6.0000000   1.0000000   6.0000000   1.0000000   8.0000000   8.0000000   1.0000000

  Atom        11          12          13          14          15          16          17          18          19          20
 IAtWgt=           1          16           1           1          16           1           1          16           1           1
 AtmWgt=   1.0078250  15.9949146   1.0078250   1.0078250  15.9949146   1.0078250   1.0078250  15.9949146   1.0078250   1.0078250
 NucSpn=           1           0           1           1           0           1           1           0           1           1
 AtZEff=   0.0000000   0.0000000   0.0000000   0.0000000   0.0000000   0.0000000   0.0000000   0.0000000   0.0000000   0.0000000
 NQMom=    0.0000000   0.0000000   0.0000000   0.0000000   0.0000000   0.0000000   0.0000000   0.0000000   0.0000000   0.0000000
 NMagM=    2.7928460   0.0000000   2.7928460   2.7928460   0.0000000   2.7928460   2.7928460   0.0000000   2.7928460   2.7928460
 AtZNuc=   1.0000000   8.0000000   1.0000000   1.0000000   8.0000000   1.0000000   1.0000000   8.0000000   1.0000000   1.0000000

  Atom        21          22          23          24          25          26          27          28          29          30
 IAtWgt=          16           1           1          16           1           1          16           1           1          16
 AtmWgt=  15.9949146   1.0078250   1.0078250  15.9949146   1.0078250   1.0078250  15.9949146   1.0078250   1.0078250  15.9949146
 NucSpn=           0           1           1           0           1           1           0           1           1           0
 AtZEff=   0.0000000   0.0000000   0.0000000   0.0000000   0.0000000   0.0000000   0.0000000   0.0000000   0.0000000   0.0000000
 NQMom=    0.0000000   0.0000000   0.0000000   0.0000000   0.0000000   0.0000000   0.0000000   0.0000000   0.0000000   0.0000000
 NMagM=    0.0000000   2.7928460   2.7928460   0.0000000   2.7928460   2.7928460   0.0000000   2.7928460   2.7928460   0.0000000
 AtZNuc=   8.0000000   1.0000000   1.0000000   8.0000000   1.0000000   1.0000000   8.0000000   1.0000000   1.0000000   8.0000000

  Atom        31          32          33          34          35          36          37          38          39          40
 IAtWgt=           1           1          16           1           1          16           1           1          16           1
 AtmWgt=   1.0078250   1.0078250  15.9949146   1.0078250   1.0078250  15.9949146   1.0078250   1.0078250  15.9949146   1.0078250
 NucSpn=           1           1           0           1           1           0           1           1           0           1
 AtZEff=   0.0000000   0.0000000   0.0000000   0.0000000   0.0000000   0.0000000   0.0000000   0.0000000   0.0000000   0.0000000
 NQMom=    0.0000000   0.0000000   0.0000000   0.0000000   0.0000000   0.0000000   0.0000000   0.0000000   0.0000000   0.0000000
 NMagM=    2.7928460   2.7928460   0.0000000   2.7928460   2.7928460   0.0000000   2.7928460   2.7928460   0.0000000   2.7928460
 AtZNuc=   1.0000000   1.0000000   8.0000000   1.0000000   1.0000000   8.0000000   1.0000000   1.0000000   8.0000000   1.0000000

  Atom        41          42          43          44          45          46          47          48          49          50
 IAtWgt=           1          16           1           1          16           1           1          16           1           1
 AtmWgt=   1.0078250  15.9949146   1.0078250   1.0078250  15.9949146   1.0078250   1.0078250  15.9949146   1.0078250   1.0078250
 NucSpn=           1           0           1           1           0           1           1           0           1           1
 AtZEff=   0.0000000   0.0000000   0.0000000   0.0000000   0.0000000   0.0000000   0.0000000   0.0000000   0.0000000   0.0000000
 NQMom=    0.0000000   0.0000000   0.0000000   0.0000000   0.0000000   0.0000000   0.0000000   0.0000000   0.0000000   0.0000000
 NMagM=    2.7928460   0.0000000   2.7928460   2.7928460   0.0000000   2.7928460   2.7928460   0.0000000   2.7928460   2.7928460
 AtZNuc=   1.0000000   8.0000000   1.0000000   1.0000000   8.0000000   1.0000000   1.0000000   8.0000000   1.0000000   1.0000000
 Background charge distribution read from input stream:
 Point Charges:
 XYZ=    1.6026    0.4015   -5.9542 Q=   -0.8200 A=    0.0000 R=    0.0000 C=    0.0000
 XYZ=    1.8519    1.1174   -6.6065 Q=    0.4100 A=    0.0000 R=    0.0000 C=    0.0000
 XYZ=    0.6071    0.3594   -5.8700 Q=    0.4100 A=    0.0000 R=    0.0000 C=    0.0000
 XYZ=    1.3200   -6.5912    0.4997 Q=   -0.8200 A=    0.0000 R=    0.0000 C=    0.0000
 XYZ=    1.1388   -5.6621    0.8221 Q=    0.4100 A=    0.0000 R=    0.0000 C=    0.0000
 XYZ=    1.8451   -6.5525   -0.3505 Q=    0.4100 A=    0.0000 R=    0.0000 C=    0.0000
 XYZ=    4.9795   -3.0895   -0.1972 Q=   -0.8200 A=    0.0000 R=    0.0000 C=    0.0000
 XYZ=    4.2766   -3.7437    0.0821 Q=    0.4100 A=    0.0000 R=    0.0000 C=    0.0000
 XYZ=    5.8744   -3.5356   -0.1835 Q=    0.4100 A=    0.0000 R=    0.0000 C=    0.0000
 XYZ=    4.6822    2.1500    0.9755 Q=   -0.8200 A=    0.0000 R=    0.0000 C=    0.0000
 XYZ=    4.8203    2.4228    0.0234 Q=    0.4100 A=    0.0000 R=    0.0000 C=    0.0000
 XYZ=    3.7033    2.0539    1.1559 Q=    0.4100 A=    0.0000 R=    0.0000 C=    0.0000
 XYZ=    3.0450   -6.2650   -1.0993 Q=   -0.8200 A=    0.0000 R=    0.0000 C=    0.0000
 XYZ=    3.7961   -6.9249   -1.0771 Q=    0.4100 A=    0.0000 R=    0.0000 C=    0.0000
 XYZ=    3.2081   -5.5989   -1.8271 Q=    0.4100 A=    0.0000 R=    0.0000 C=    0.0000
 XYZ=    3.2598   -3.5456   -5.9160 Q=   -0.8200 A=    0.0000 R=    0.0000 C=    0.0000
 XYZ=    3.3671   -3.3073   -4.9507 Q=    0.4100 A=    0.0000 R=    0.0000 C=    0.0000
 XYZ=    4.1287   -3.8881   -6.2733 Q=    0.4100 A=    0.0000 R=    0.0000 C=    0.0000
 XYZ=    5.4981   -1.6170   -1.8765 Q=   -0.8200 A=    0.0000 R=    0.0000 C=    0.0000
 XYZ=    6.3364   -1.1192   -1.6539 Q=    0.4100 A=    0.0000 R=    0.0000 C=    0.0000
 XYZ=    5.2749   -2.2443   -1.1304 Q=    0.4100 A=    0.0000 R=    0.0000 C=    0.0000
 XYZ=    5.2704   -1.9124    1.9509 Q=   -0.8200 A=    0.0000 R=    0.0000 C=    0.0000
 XYZ=    5.1502   -2.3516    1.0606 Q=    0.4100 A=    0.0000 R=    0.0000 C=    0.0000
 XYZ=    5.4627   -2.6086    2.6426 Q=    0.4100 A=    0.0000 R=    0.0000 C=    0.0000
 XYZ=    4.7501    0.3099   -3.1858 Q=   -0.8200 A=    0.0000 R=    0.0000 C=    0.0000
 XYZ=    5.3968    0.3450   -3.9478 Q=    0.4100 A=    0.0000 R=    0.0000 C=    0.0000
 XYZ=    5.0011   -0.4369   -2.5699 Q=    0.4100 A=    0.0000 R=    0.0000 C=    0.0000
 XYZ=    3.9398   -0.8492    3.7597 Q=   -0.8200 A=    0.0000 R=    0.0000 C=    0.0000
 XYZ=    4.2019    0.0530    4.1023 Q=    0.4100 A=    0.0000 R=    0.0000 C=    0.0000
 XYZ=    4.4596   -1.0547    2.9305 Q=    0.4100 A=    0.0000 R=    0.0000 C=    0.0000
 XYZ=   -3.4710    5.1537    1.8172 Q=   -0.8200 A=    0.0000 R=    0.0000 C=    0.0000
 XYZ=   -4.3030    4.6761    2.0998 Q=    0.4100 A=    0.0000 R=    0.0000 C=    0.0000
 XYZ=   -2.7783    5.0684    2.5333 Q=    0.4100 A=    0.0000 R=    0.0000 C=    0.0000
 XYZ=   -2.4052    6.7668   -1.9525 Q=   -0.8200 A=    0.0000 R=    0.0000 C=    0.0000
 XYZ=   -2.4585    5.9515   -1.3758 Q=    0.4100 A=    0.0000 R=    0.0000 C=    0.0000
 XYZ=   -2.6883    7.5676   -1.4245 Q=    0.4100 A=    0.0000 R=    0.0000 C=    0.0000
 XYZ=   -2.8366    4.0104   -3.7798 Q=   -0.8200 A=    0.0000 R=    0.0000 C=    0.0000
 XYZ=   -2.2051    4.7203   -3.4679 Q=    0.4100 A=    0.0000 R=    0.0000 C=    0.0000
 XYZ=   -3.7734    4.2724   -3.5478 Q=    0.4100 A=    0.0000 R=    0.0000 C=    0.0000
 XYZ=    4.1963   -5.3615    2.4908 Q=   -0.8200 A=    0.0000 R=    0.0000 C=    0.0000
 XYZ=    3.8380   -4.9172    1.6696 Q=    0.4100 A=    0.0000 R=    0.0000 C=    0.0000
 XYZ=    3.4364   -5.7100    3.0397 Q=    0.4100 A=    0.0000 R=    0.0000 C=    0.0000
 XYZ=    0.6080    6.2844   -0.9008 Q=   -0.8200 A=    0.0000 R=    0.0000 C=    0.0000
 XYZ=    1.5669    6.0096   -0.9714 Q=    0.4100 A=    0.0000 R=    0.0000 C=    0.0000
 XYZ=    0.2275    6.4053   -1.8177 Q=    0.4100 A=    0.0000 R=    0.0000 C=    0.0000
 XYZ=   -5.0636    3.9858   -0.9280 Q=   -0.8200 A=    0.0000 R=    0.0000 C=    0.0000
 XYZ=   -5.6028    4.7440   -0.5614 Q=    0.4100 A=    0.0000 R=    0.0000 C=    0.0000
 XYZ=   -5.5534    3.1265   -0.7804 Q=    0.4100 A=    0.0000 R=    0.0000 C=    0.0000
 XYZ=    1.9267    4.7561   -4.9486 Q=   -0.8200 A=    0.0000 R=    0.0000 C=    0.0000
 XYZ=    2.8757    5.0659   -5.0085 Q=    0.4100 A=    0.0000 R=    0.0000 C=    0.0000
 XYZ=    1.8410    4.0852   -4.2120 Q=    0.4100 A=    0.0000 R=    0.0000 C=    0.0000
 XYZ=    2.5738    6.0356    2.1718 Q=   -0.8200 A=    0.0000 R=    0.0000 C=    0.0000
 XYZ=    2.1915    5.2377    1.7057 Q=    0.4100 A=    0.0000 R=    0.0000 C=    0.0000
 XYZ=    2.7870    6.7441    1.4991 Q=    0.4100 A=    0.0000 R=    0.0000 C=    0.0000
 XYZ=   -3.5052    2.4674   -5.4904 Q=   -0.8200 A=    0.0000 R=    0.0000 C=    0.0000
 XYZ=   -3.0840    3.1320   -4.8731 Q=    0.4100 A=    0.0000 R=    0.0000 C=    0.0000
 XYZ=   -3.7820    2.9259   -6.3350 Q=    0.4100 A=    0.0000 R=    0.0000 C=    0.0000
 XYZ=    4.8216    2.1351   -1.5675 Q=   -0.8200 A=    0.0000 R=    0.0000 C=    0.0000
 XYZ=    4.6408    3.0288   -1.9783 Q=    0.4100 A=    0.0000 R=    0.0000 C=    0.0000
 XYZ=    4.7342    1.4239   -2.2651 Q=    0.4100 A=    0.0000 R=    0.0000 C=    0.0000
 XYZ=    5.7290   -5.2259   -1.9948 Q=   -0.8200 A=    0.0000 R=    0.0000 C=    0.0000
 XYZ=    4.8491   -4.9558   -2.3857 Q=    0.4100 A=    0.0000 R=    0.0000 C=    0.0000
 XYZ=    6.3846   -5.3907   -2.7318 Q=    0.4100 A=    0.0000 R=    0.0000 C=    0.0000
 XYZ=    6.0155    0.1811    1.3953 Q=   -0.8200 A=    0.0000 R=    0.0000 C=    0.0000
 XYZ=    5.2676    0.8447    1.4129 Q=    0.4100 A=    0.0000 R=    0.0000 C=    0.0000
 XYZ=    5.6505   -0.7367    1.5518 Q=    0.4100 A=    0.0000 R=    0.0000 C=    0.0000
 XYZ=   -0.8562   -4.7183    4.0845 Q=   -0.8200 A=    0.0000 R=    0.0000 C=    0.0000
 XYZ=   -1.1173   -5.3822    3.3837 Q=    0.4100 A=    0.0000 R=    0.0000 C=    0.0000
 XYZ=   -0.1891   -5.1324    4.7038 Q=    0.4100 A=    0.0000 R=    0.0000 C=    0.0000
 XYZ=    2.7367    5.5315   -0.9342 Q=   -0.8200 A=    0.0000 R=    0.0000 C=    0.0000
 XYZ=    3.1463    6.3533   -0.5379 Q=    0.4100 A=    0.0000 R=    0.0000 C=    0.0000
 XYZ=    3.3932    5.0958   -1.5501 Q=    0.4100 A=    0.0000 R=    0.0000 C=    0.0000
 XYZ=   -1.2577   -1.5369    6.9721 Q=   -0.8200 A=    0.0000 R=    0.0000 C=    0.0000
 XYZ=   -0.6566   -0.9868    6.3923 Q=    0.4100 A=    0.0000 R=    0.0000 C=    0.0000
 XYZ=   -1.8284   -2.1242    6.3980 Q=    0.4100 A=    0.0000 R=    0.0000 C=    0.0000
 XYZ=   -5.8309   -1.4865    3.1182 Q=   -0.8200 A=    0.0000 R=    0.0000 C=    0.0000
 XYZ=   -4.8352   -1.4875    3.2104 Q=    0.4100 A=    0.0000 R=    0.0000 C=    0.0000
 XYZ=   -6.1832   -2.4050    3.2977 Q=    0.4100 A=    0.0000 R=    0.0000 C=    0.0000
 XYZ=    2.0992   -2.7568    6.3885 Q=   -0.8200 A=    0.0000 R=    0.0000 C=    0.0000
 XYZ=    1.8457   -2.3250    5.5228 Q=    0.4100 A=    0.0000 R=    0.0000 C=    0.0000
 XYZ=    2.4862   -2.0693    7.0030 Q=    0.4100 A=    0.0000 R=    0.0000 C=    0.0000
 XYZ=    3.1743   -1.2230   -7.0809 Q=   -0.8200 A=    0.0000 R=    0.0000 C=    0.0000
 XYZ=    3.1621   -2.1461   -6.6965 Q=    0.4100 A=    0.0000 R=    0.0000 C=    0.0000
 XYZ=    2.6130   -0.6189   -6.5151 Q=    0.4100 A=    0.0000 R=    0.0000 C=    0.0000
 XYZ=   -0.3520    6.6365   -2.9356 Q=   -0.8200 A=    0.0000 R=    0.0000 C=    0.0000
 XYZ=   -1.3002    6.5731   -2.6242 Q=    0.4100 A=    0.0000 R=    0.0000 C=    0.0000
 XYZ=   -0.2900    6.3191   -3.8819 Q=    0.4100 A=    0.0000 R=    0.0000 C=    0.0000
 XYZ=   -5.1202    4.5070   -3.2496 Q=   -0.8200 A=    0.0000 R=    0.0000 C=    0.0000
 XYZ=   -5.1986    4.1822   -2.3071 Q=    0.4100 A=    0.0000 R=    0.0000 C=    0.0000
 XYZ=   -5.8288    4.0782   -3.8100 Q=    0.4100 A=    0.0000 R=    0.0000 C=    0.0000
 XYZ=    2.0817   -5.8682    3.5068 Q=   -0.8200 A=    0.0000 R=    0.0000 C=    0.0000
 XYZ=    1.4174   -5.7259    4.2407 Q=    0.4100 A=    0.0000 R=    0.0000 C=    0.0000
 XYZ=    1.9091   -6.7499    3.0674 Q=    0.4100 A=    0.0000 R=    0.0000 C=    0.0000
 XYZ=   -5.4058    0.1136    4.7612 Q=   -0.8200 A=    0.0000 R=    0.0000 C=    0.0000
 XYZ=   -4.4261   -0.0110    4.9185 Q=    0.4100 A=    0.0000 R=    0.0000 C=    0.0000
 XYZ=   -5.6663   -0.3376    3.9076 Q=    0.4100 A=    0.0000 R=    0.0000 C=    0.0000
 XYZ=   -5.6660    1.4948   -4.8365 Q=   -0.8200 A=    0.0000 R=    0.0000 C=    0.0000
 XYZ=   -5.7366    0.5549   -4.5021 Q=    0.4100 A=    0.0000 R=    0.0000 C=    0.0000
 XYZ=   -4.7020    1.7466   -4.9219 Q=    0.4100 A=    0.0000 R=    0.0000 C=    0.0000
 XYZ=    4.5055   -2.5655    5.3434 Q=   -0.8200 A=    0.0000 R=    0.0000 C=    0.0000
 XYZ=    4.2181   -1.8530    4.7032 Q=    0.4100 A=    0.0000 R=    0.0000 C=    0.0000
 XYZ=    3.7108   -3.1063    5.6189 Q=    0.4100 A=    0.0000 R=    0.0000 C=    0.0000
 XYZ=   -0.5093   -7.7174    1.3489 Q=   -0.8200 A=    0.0000 R=    0.0000 C=    0.0000
 XYZ=    0.2552   -7.3388    0.8270 Q=    0.4100 A=    0.0000 R=    0.0000 C=    0.0000
 XYZ=   -1.1421   -8.1779    0.7264 Q=    0.4100 A=    0.0000 R=    0.0000 C=    0.0000
 XYZ=    1.5441    0.8226    6.9662 Q=   -0.8200 A=    0.0000 R=    0.0000 C=    0.0000
 XYZ=    2.0020    0.0809    7.4563 Q=    0.4100 A=    0.0000 R=    0.0000 C=    0.0000
 XYZ=    2.2264    1.4739    6.6342 Q=    0.4100 A=    0.0000 R=    0.0000 C=    0.0000
 XYZ=    4.6923    0.9073    5.0052 Q=   -0.8200 A=    0.0000 R=    0.0000 C=    0.0000
 XYZ=    5.0108    0.2902    5.7247 Q=    0.4100 A=    0.0000 R=    0.0000 C=    0.0000
 XYZ=    4.0144    1.5380    5.3830 Q=    0.4100 A=    0.0000 R=    0.0000 C=    0.0000
 XYZ=   -1.7878   -6.5572    2.8749 Q=   -0.8200 A=    0.0000 R=    0.0000 C=    0.0000
 XYZ=   -1.0959   -6.9032    2.2412 Q=    0.4100 A=    0.0000 R=    0.0000 C=    0.0000
 XYZ=   -2.6038   -6.2884    2.3631 Q=    0.4100 A=    0.0000 R=    0.0000 C=    0.0000
 XYZ=   -5.7220    4.3567    2.1146 Q=   -0.8200 A=    0.0000 R=    0.0000 C=    0.0000
 XYZ=   -5.9199    5.1468    1.5344 Q=    0.4100 A=    0.0000 R=    0.0000 C=    0.0000
 XYZ=   -6.0021    4.5545    3.0540 Q=    0.4100 A=    0.0000 R=    0.0000 C=    0.0000
 XYZ=    5.7165   -3.6273    3.4465 Q=   -0.8200 A=    0.0000 R=    0.0000 C=    0.0000
 XYZ=    5.3946   -3.2288    4.3054 Q=    0.4100 A=    0.0000 R=    0.0000 C=    0.0000
 XYZ=    5.1512   -4.4186    3.2137 Q=    0.4100 A=    0.0000 R=    0.0000 C=    0.0000
 XYZ=    0.8500    8.3971    0.4735 Q=   -0.8200 A=    0.0000 R=    0.0000 C=    0.0000
 XYZ=    0.5947    8.2324    1.4263 Q=    0.4100 A=    0.0000 R=    0.0000 C=    0.0000
 XYZ=    0.7889    7.5415   -0.0406 Q=    0.4100 A=    0.0000 R=    0.0000 C=    0.0000
 XYZ=    2.6762   -5.4873   -7.1330 Q=   -0.8200 A=    0.0000 R=    0.0000 C=    0.0000
 XYZ=    3.2825   -5.4878   -7.9283 Q=    0.4100 A=    0.0000 R=    0.0000 C=    0.0000
 XYZ=    2.8847   -4.6979   -6.5556 Q=    0.4100 A=    0.0000 R=    0.0000 C=    0.0000
 XYZ=    6.6961    1.3431   -0.6094 Q=   -0.8200 A=    0.0000 R=    0.0000 C=    0.0000
 XYZ=    5.9068    1.5940   -1.1698 Q=    0.4100 A=    0.0000 R=    0.0000 C=    0.0000
 XYZ=    6.3943    0.7744    0.1558 Q=    0.4100 A=    0.0000 R=    0.0000 C=    0.0000
 XYZ=   -3.1378   -2.5854    5.6844 Q=   -0.8200 A=    0.0000 R=    0.0000 C=    0.0000
 XYZ=   -3.6428   -2.4770    6.5408 Q=    0.4100 A=    0.0000 R=    0.0000 C=    0.0000
 XYZ=   -3.2117   -3.5323    5.3715 Q=    0.4100 A=    0.0000 R=    0.0000 C=    0.0000
 XYZ=    1.0528    3.8944   -6.9618 Q=   -0.8200 A=    0.0000 R=    0.0000 C=    0.0000
 XYZ=    1.6138    4.2602   -6.2191 Q=    0.4100 A=    0.0000 R=    0.0000 C=    0.0000
 XYZ=    1.4718    3.0579   -7.3150 Q=    0.4100 A=    0.0000 R=    0.0000 C=    0.0000
 XYZ=    5.7082    3.6946    2.5894 Q=   -0.8200 A=    0.0000 R=    0.0000 C=    0.0000
 XYZ=    4.9808    4.1356    3.1152 Q=    0.4100 A=    0.0000 R=    0.0000 C=    0.0000
 XYZ=    5.3054    3.1636    1.8438 Q=    0.4100 A=    0.0000 R=    0.0000 C=    0.0000
 XYZ=   -0.1546    5.8012   -4.9550 Q=   -0.8200 A=    0.0000 R=    0.0000 C=    0.0000
 XYZ=   -0.6230    5.4719   -5.7749 Q=    0.4100 A=    0.0000 R=    0.0000 C=    0.0000
 XYZ=    0.8075    5.5305   -4.9894 Q=    0.4100 A=    0.0000 R=    0.0000 C=    0.0000
 XYZ=    6.7673   -4.4921   -0.1045 Q=   -0.8200 A=    0.0000 R=    0.0000 C=    0.0000
 XYZ=    7.7494   -4.6597   -0.1913 Q=    0.4100 A=    0.0000 R=    0.0000 C=    0.0000
 XYZ=    6.3084   -4.7528   -0.9539 Q=    0.4100 A=    0.0000 R=    0.0000 C=    0.0000
 XYZ=    0.7520    6.8825    3.9679 Q=   -0.8200 A=    0.0000 R=    0.0000 C=    0.0000
 XYZ=    0.1376    7.3668    3.3451 Q=    0.4100 A=    0.0000 R=    0.0000 C=    0.0000
 XYZ=    1.4477    6.3965    3.4389 Q=    0.4100 A=    0.0000 R=    0.0000 C=    0.0000
 XYZ=   -0.0224    2.4235    8.0850 Q=   -0.8200 A=    0.0000 R=    0.0000 C=    0.0000
 XYZ=    0.4337    1.7579    7.4942 Q=    0.4100 A=    0.0000 R=    0.0000 C=    0.0000
 XYZ=   -0.8650    2.0251    8.4475 Q=    0.4100 A=    0.0000 R=    0.0000 C=    0.0000
 XYZ=    4.1257    5.1607    3.6799 Q=   -0.8200 A=    0.0000 R=    0.0000 C=    0.0000
 XYZ=    3.7102    4.8685    4.5413 Q=    0.4100 A=    0.0000 R=    0.0000 C=    0.0000
 XYZ=    3.4069    5.4097    3.0308 Q=    0.4100 A=    0.0000 R=    0.0000 C=    0.0000
 XYZ=    2.2461    1.8242   -7.5829 Q=   -0.8200 A=    0.0000 R=    0.0000 C=    0.0000
 XYZ=    3.1919    1.9335   -7.2770 Q=    0.4100 A=    0.0000 R=    0.0000 C=    0.0000
 XYZ=    2.2316    1.6627   -8.5697 Q=    0.4100 A=    0.0000 R=    0.0000 C=    0.0000
 XYZ=   -2.8444    8.1261    1.5588 Q=   -0.8200 A=    0.0000 R=    0.0000 C=    0.0000
 XYZ=   -3.2092    8.8784    2.1075 Q=    0.4100 A=    0.0000 R=    0.0000 C=    0.0000
 XYZ=   -3.2944    7.2727    1.8223 Q=    0.4100 A=    0.0000 R=    0.0000 C=    0.0000
 XYZ=   -4.1096    6.8381   -3.4955 Q=   -0.8200 A=    0.0000 R=    0.0000 C=    0.0000
 XYZ=   -3.4073    6.9029   -2.7866 Q=    0.4100 A=    0.0000 R=    0.0000 C=    0.0000
 XYZ=   -4.7415    6.0960   -3.2718 Q=    0.4100 A=    0.0000 R=    0.0000 C=    0.0000
 XYZ=    3.3172    2.3958    6.2881 Q=   -0.8200 A=    0.0000 R=    0.0000 C=    0.0000
 XYZ=    3.9772    2.3415    7.0375 Q=    0.4100 A=    0.0000 R=    0.0000 C=    0.0000
 XYZ=    3.2425    3.3435    5.9779 Q=    0.4100 A=    0.0000 R=    0.0000 C=    0.0000
 XYZ=   -2.0434    5.1757   -7.0979 Q=   -0.8200 A=    0.0000 R=    0.0000 C=    0.0000
 XYZ=   -2.0720    4.4563   -6.4039 Q=    0.4100 A=    0.0000 R=    0.0000 C=    0.0000
 XYZ=   -2.9754    5.4632   -7.3185 Q=    0.4100 A=    0.0000 R=    0.0000 C=    0.0000
 XYZ=   -2.9962   -5.0319    5.5180 Q=   -0.8200 A=    0.0000 R=    0.0000 C=    0.0000
 XYZ=   -2.2076   -4.9165    4.9140 Q=    0.4100 A=    0.0000 R=    0.0000 C=    0.0000
 XYZ=   -2.8341   -5.8026    6.1343 Q=    0.4100 A=    0.0000 R=    0.0000 C=    0.0000
 XYZ=    4.5822    4.5920   -2.1768 Q=   -0.8200 A=    0.0000 R=    0.0000 C=    0.0000
 XYZ=    5.4752    4.8999   -1.8483 Q=    0.4100 A=    0.0000 R=    0.0000 C=    0.0000
 XYZ=    4.4485    4.9018   -3.1182 Q=    0.4100 A=    0.0000 R=    0.0000 C=    0.0000
 XYZ=   -7.7026    3.0876    1.5611 Q=   -0.8200 A=    0.0000 R=    0.0000 C=    0.0000
 XYZ=   -6.8453    3.5300    1.8244 Q=    0.4100 A=    0.0000 R=    0.0000 C=    0.0000
 XYZ=   -7.5794    2.6150    0.6884 Q=    0.4100 A=    0.0000 R=    0.0000 C=    0.0000
 XYZ=    5.3702   -0.2786   -7.0786 Q=   -0.8200 A=    0.0000 R=    0.0000 C=    0.0000
 XYZ=    5.7231    0.0932   -6.2200 Q=    0.4100 A=    0.0000 R=    0.0000 C=    0.0000
 XYZ=    4.4689   -0.6822   -6.9216 Q=    0.4100 A=    0.0000 R=    0.0000 C=    0.0000
 XYZ=    5.1310   -7.2985   -0.7472 Q=   -0.8200 A=    0.0000 R=    0.0000 C=    0.0000
 XYZ=    5.8009   -7.9014   -0.3138 Q=    0.4100 A=    0.0000 R=    0.0000 C=    0.0000
 XYZ=    5.6040   -6.5300   -1.1782 Q=    0.4100 A=    0.0000 R=    0.0000 C=    0.0000
 XYZ=   -4.0468   -5.9238    1.7422 Q=   -0.8200 A=    0.0000 R=    0.0000 C=    0.0000
 XYZ=   -4.1783   -6.9003    1.9131 Q=    0.4100 A=    0.0000 R=    0.0000 C=    0.0000
 XYZ=   -4.6336   -5.6359    0.9854 Q=    0.4100 A=    0.0000 R=    0.0000 C=    0.0000
 XYZ=   -0.6385    8.1428    2.4402 Q=   -0.8200 A=    0.0000 R=    0.0000 C=    0.0000
 XYZ=   -0.6552    8.9676    3.0054 Q=    0.4100 A=    0.0000 R=    0.0000 C=    0.0000
 XYZ=   -1.4579    8.1145    1.8676 Q=    0.4100 A=    0.0000 R=    0.0000 C=    0.0000
 XYZ=   -2.4731   -1.1087   -8.9243 Q=   -0.8200 A=    0.0000 R=    0.0000 C=    0.0000
 XYZ=   -2.4661   -1.9390   -9.4816 Q=    0.4100 A=    0.0000 R=    0.0000 C=    0.0000
 XYZ=   -2.7295   -1.3396   -7.9856 Q=    0.4100 A=    0.0000 R=    0.0000 C=    0.0000
 XYZ=    0.1175   -3.9447    7.1419 Q=   -0.8200 A=    0.0000 R=    0.0000 C=    0.0000
 XYZ=    0.9427   -3.5502    6.7375 Q=    0.4100 A=    0.0000 R=    0.0000 C=    0.0000
 XYZ=   -0.6610   -3.3425    6.9649 Q=    0.4100 A=    0.0000 R=    0.0000 C=    0.0000
 XYZ=    6.6281    2.0594    3.8993 Q=   -0.8200 A=    0.0000 R=    0.0000 C=    0.0000
 XYZ=    6.3649    2.6838    3.1639 Q=    0.4100 A=    0.0000 R=    0.0000 C=    0.0000
 XYZ=    5.8206    1.5657    4.2223 Q=    0.4100 A=    0.0000 R=    0.0000 C=    0.0000
 XYZ=    0.5859   -5.7357    5.6924 Q=   -0.8200 A=    0.0000 R=    0.0000 C=    0.0000
 XYZ=    0.0602   -6.5277    6.0031 Q=    0.4100 A=    0.0000 R=    0.0000 C=    0.0000
 XYZ=    0.5473   -5.0170    6.3867 Q=    0.4100 A=    0.0000 R=    0.0000 C=    0.0000
 XYZ=   -7.4815   -1.6447    1.5621 Q=   -0.8200 A=    0.0000 R=    0.0000 C=    0.0000
 XYZ=   -6.6855   -1.4212    2.1247 Q=    0.4100 A=    0.0000 R=    0.0000 C=    0.0000
 XYZ=   -7.4957   -2.6280    1.3804 Q=    0.4100 A=    0.0000 R=    0.0000 C=    0.0000
 XYZ=    3.1049    4.5553    5.7622 Q=   -0.8200 A=    0.0000 R=    0.0000 C=    0.0000
 XYZ=    3.8333    4.9858    6.2954 Q=    0.4100 A=    0.0000 R=    0.0000 C=    0.0000
 XYZ=    2.2403    5.0258    5.9386 Q=    0.4100 A=    0.0000 R=    0.0000 C=    0.0000
 XYZ=    7.9434    0.5361    2.4778 Q=   -0.8200 A=    0.0000 R=    0.0000 C=    0.0000
 XYZ=    7.7777    1.2054    3.2021 Q=    0.4100 A=    0.0000 R=    0.0000 C=    0.0000
 XYZ=    7.0815    0.3226    2.0177 Q=    0.4100 A=    0.0000 R=    0.0000 C=    0.0000
 XYZ=    7.5960   -0.8047   -0.8803 Q=   -0.8200 A=    0.0000 R=    0.0000 C=    0.0000
 XYZ=    7.3605    0.1622   -0.7813 Q=    0.4100 A=    0.0000 R=    0.0000 C=    0.0000
 XYZ=    8.0299   -1.1297   -0.0400 Q=    0.4100 A=    0.0000 R=    0.0000 C=    0.0000
 XYZ=    1.2067    5.7434    5.9996 Q=   -0.8200 A=    0.0000 R=    0.0000 C=    0.0000
 XYZ=    0.8168    6.1432    5.1700 Q=    0.4100 A=    0.0000 R=    0.0000 C=    0.0000
 XYZ=    0.4843    5.2914    6.5231 Q=    0.4100 A=    0.0000 R=    0.0000 C=    0.0000
 XYZ=   -0.6985    9.1190   -2.7360 Q=   -0.8200 A=    0.0000 R=    0.0000 C=    0.0000
 XYZ=   -1.0222    9.3903   -3.6425 Q=    0.4100 A=    0.0000 R=    0.0000 C=    0.0000
 XYZ=   -0.5218    8.1348   -2.7261 Q=    0.4100 A=    0.0000 R=    0.0000 C=    0.0000
 XYZ=   -6.4544    5.7609   -0.0713 Q=   -0.8200 A=    0.0000 R=    0.0000 C=    0.0000
 XYZ=   -6.3588    6.7563   -0.0613 Q=    0.4100 A=    0.0000 R=    0.0000 C=    0.0000
 XYZ=   -7.2886    5.5111   -0.5632 Q=    0.4100 A=    0.0000 R=    0.0000 C=    0.0000
 XYZ=   -7.7311    2.1314   -0.5733 Q=   -0.8200 A=    0.0000 R=    0.0000 C=    0.0000
 XYZ=   -7.8743    1.1423   -0.5390 Q=    0.4100 A=    0.0000 R=    0.0000 C=    0.0000
 XYZ=   -8.0367    2.4819   -1.4585 Q=    0.4100 A=    0.0000 R=    0.0000 C=    0.0000
 XYZ=    3.0196   -0.9635    7.6692 Q=   -0.8200 A=    0.0000 R=    0.0000 C=    0.0000
 XYZ=    3.4041   -0.8935    8.5897 Q=    0.4100 A=    0.0000 R=    0.0000 C=    0.0000
 XYZ=    3.6789   -0.6110    7.0050 Q=    0.4100 A=    0.0000 R=    0.0000 C=    0.0000
 XYZ=   -2.7847    8.7499   -0.5804 Q=   -0.8200 A=    0.0000 R=    0.0000 C=    0.0000
 XYZ=   -1.9557    9.2961   -0.7015 Q=    0.4100 A=    0.0000 R=    0.0000 C=    0.0000
 XYZ=   -2.8564    8.4601    0.3740 Q=    0.4100 A=    0.0000 R=    0.0000 C=    0.0000
 XYZ=    6.4931    0.5778   -4.8703 Q=   -0.8200 A=    0.0000 R=    0.0000 C=    0.0000
 XYZ=    6.8492    1.4731   -4.6025 Q=    0.4100 A=    0.0000 R=    0.0000 C=    0.0000
 XYZ=    7.1646   -0.1285   -4.6463 Q=    0.4100 A=    0.0000 R=    0.0000 C=    0.0000
 XYZ=    7.7409   -4.2653    2.1488 Q=   -0.8200 A=    0.0000 R=    0.0000 C=    0.0000
 XYZ=    7.1867   -3.9517    2.9199 Q=    0.4100 A=    0.0000 R=    0.0000 C=    0.0000
 XYZ=    7.1760   -4.2987    1.3243 Q=    0.4100 A=    0.0000 R=    0.0000 C=    0.0000
 XYZ=    1.6240   -7.4305   -6.3738 Q=   -0.8200 A=    0.0000 R=    0.0000 C=    0.0000
 XYZ=    2.1459   -6.6236   -6.6506 Q=    0.4100 A=    0.0000 R=    0.0000 C=    0.0000
 XYZ=    2.1482   -7.9515   -5.7001 Q=    0.4100 A=    0.0000 R=    0.0000 C=    0.0000
 XYZ=   -2.3849   -5.7815   -7.1805 Q=   -0.8200 A=    0.0000 R=    0.0000 C=    0.0000
 XYZ=   -1.4055   -5.8432   -6.9880 Q=    0.4100 A=    0.0000 R=    0.0000 C=    0.0000
 XYZ=   -2.8955   -6.2646   -6.4692 Q=    0.4100 A=    0.0000 R=    0.0000 C=    0.0000
 XYZ=    4.5711    2.0570   -6.9356 Q=   -0.8200 A=    0.0000 R=    0.0000 C=    0.0000
 XYZ=    5.3515    2.6001   -6.6256 Q=    0.4100 A=    0.0000 R=    0.0000 C=    0.0000
 XYZ=    4.8748    1.1281   -7.1479 Q=    0.4100 A=    0.0000 R=    0.0000 C=    0.0000
 XYZ=    3.4049    7.4620    0.4076 Q=   -0.8200 A=    0.0000 R=    0.0000 C=    0.0000
 XYZ=    2.5867    8.0349    0.3590 Q=    0.4100 A=    0.0000 R=    0.0000 C=    0.0000
 XYZ=    4.1708    8.0036    0.7542 Q=    0.4100 A=    0.0000 R=    0.0000 C=    0.0000
 XYZ=   -0.3084    4.7877    7.7227 Q=   -0.8200 A=    0.0000 R=    0.0000 C=    0.0000
 XYZ=    0.0742    5.1846    8.5571 Q=    0.4100 A=    0.0000 R=    0.0000 C=    0.0000
 XYZ=   -0.0256    3.8313    7.6485 Q=    0.4100 A=    0.0000 R=    0.0000 C=    0.0000
 XYZ=    4.3538    5.0742   -4.7911 Q=   -0.8200 A=    0.0000 R=    0.0000 C=    0.0000
 XYZ=    5.1243    5.7033   -4.6880 Q=    0.4100 A=    0.0000 R=    0.0000 C=    0.0000
 XYZ=    4.6193    4.3168   -5.3876 Q=    0.4100 A=    0.0000 R=    0.0000 C=    0.0000
 XYZ=   -4.8293   -5.4701    4.2293 Q=   -0.8200 A=    0.0000 R=    0.0000 C=    0.0000
 XYZ=   -4.0267   -5.3320    4.8097 Q=    0.4100 A=    0.0000 R=    0.0000 C=    0.0000
 XYZ=   -4.5654   -5.3802    3.2689 Q=    0.4100 A=    0.0000 R=    0.0000 C=    0.0000
 XYZ=   -7.2103    1.5419    5.3526 Q=   -0.8200 A=    0.0000 R=    0.0000 C=    0.0000
 XYZ=   -6.3291    1.1477    5.0915 Q=    0.4100 A=    0.0000 R=    0.0000 C=    0.0000
 XYZ=   -7.7642    0.8463    5.8102 Q=    0.4100 A=    0.0000 R=    0.0000 C=    0.0000
 XYZ=   -2.2267   -1.2264    9.0417 Q=   -0.8200 A=    0.0000 R=    0.0000 C=    0.0000
 XYZ=   -1.7160   -1.2985    8.1849 Q=    0.4100 A=    0.0000 R=    0.0000 C=    0.0000
 XYZ=   -1.7218   -1.6891    9.7704 Q=    0.4100 A=    0.0000 R=    0.0000 C=    0.0000
 XYZ=   -6.1806   -1.4451    6.4913 Q=   -0.8200 A=    0.0000 R=    0.0000 C=    0.0000
 XYZ=   -5.7593   -0.9073    5.7609 Q=    0.4100 A=    0.0000 R=    0.0000 C=    0.0000
 XYZ=   -5.5315   -1.5499    7.2448 Q=    0.4100 A=    0.0000 R=    0.0000 C=    0.0000
 XYZ=    0.5187   -5.4531   -8.1905 Q=   -0.8200 A=    0.0000 R=    0.0000 C=    0.0000
 XYZ=   -0.0333   -6.2273   -7.8805 Q=    0.4100 A=    0.0000 R=    0.0000 C=    0.0000
 XYZ=    1.4414   -5.5292   -7.8125 Q=    0.4100 A=    0.0000 R=    0.0000 C=    0.0000
 XYZ=   -7.8839   -0.1342   -0.5099 Q=   -0.8200 A=    0.0000 R=    0.0000 C=    0.0000
 XYZ=   -7.7339   -0.8113   -1.2303 Q=    0.4100 A=    0.0000 R=    0.0000 C=    0.0000
 XYZ=   -7.7182   -0.5545    0.3823 Q=    0.4100 A=    0.0000 R=    0.0000 C=    0.0000
 XYZ=   -7.0669    3.3507   -4.5572 Q=   -0.8200 A=    0.0000 R=    0.0000 C=    0.0000
 XYZ=   -7.2715    3.7855   -5.4342 Q=    0.4100 A=    0.0000 R=    0.0000 C=    0.0000
 XYZ=   -6.5798    2.4920   -4.7166 Q=    0.4100 A=    0.0000 R=    0.0000 C=    0.0000
 XYZ=    5.3683   -4.1916   -6.8750 Q=   -0.8200 A=    0.0000 R=    0.0000 C=    0.0000
 XYZ=    6.2516   -4.4111   -6.4607 Q=    0.4100 A=    0.0000 R=    0.0000 C=    0.0000
 XYZ=    5.2812   -4.6716   -7.7479 Q=    0.4100 A=    0.0000 R=    0.0000 C=    0.0000
 XYZ=    3.3790   -1.4153   -9.4571 Q=   -0.8200 A=    0.0000 R=    0.0000 C=    0.0000
 XYZ=    3.2394   -1.3470   -8.4693 Q=    0.4100 A=    0.0000 R=    0.0000 C=    0.0000
 XYZ=    4.1857   -1.9767   -9.6417 Q=    0.4100 A=    0.0000 R=    0.0000 C=    0.0000
 XYZ=   -6.2136    2.2608   -7.1460 Q=   -0.8200 A=    0.0000 R=    0.0000 C=    0.0000
 XYZ=   -6.6781    1.5380   -7.6578 Q=    0.4100 A=    0.0000 R=    0.0000 C=    0.0000
 XYZ=   -6.0136    1.9383   -6.2208 Q=    0.4100 A=    0.0000 R=    0.0000 C=    0.0000
 XYZ=   -1.6536   -8.5932    4.2127 Q=   -0.8200 A=    0.0000 R=    0.0000 C=    0.0000
 XYZ=   -1.2287   -9.3146    3.6658 Q=    0.4100 A=    0.0000 R=    0.0000 C=    0.0000
 XYZ=   -1.7003   -7.7512    3.6753 Q=    0.4100 A=    0.0000 R=    0.0000 C=    0.0000
 XYZ=   -0.3324    4.8971   -8.6187 Q=   -0.8200 A=    0.0000 R=    0.0000 C=    0.0000
 XYZ=   -1.1142    5.1146   -8.0343 Q=    0.4100 A=    0.0000 R=    0.0000 C=    0.0000
 XYZ=    0.4117    4.5334   -8.0583 Q=    0.4100 A=    0.0000 R=    0.0000 C=    0.0000
 XYZ=    5.3408   -0.8029    6.6244 Q=   -0.8200 A=    0.0000 R=    0.0000 C=    0.0000
 XYZ=    6.2333   -0.7135    7.0667 Q=    0.4100 A=    0.0000 R=    0.0000 C=    0.0000
 XYZ=    5.2431   -1.7269    6.2546 Q=    0.4100 A=    0.0000 R=    0.0000 C=    0.0000
 XYZ=   -0.7971    9.8504   -0.6130 Q=   -0.8200 A=    0.0000 R=    0.0000 C=    0.0000
 XYZ=   -0.6397    9.8218   -1.6001 Q=    0.4100 A=    0.0000 R=    0.0000 C=    0.0000
 XYZ=   -0.1682    9.2208   -0.1569 Q=    0.4100 A=    0.0000 R=    0.0000 C=    0.0000
 XYZ=   -0.3233   -0.1569   -9.8948 Q=   -0.8200 A=    0.0000 R=    0.0000 C=    0.0000
 XYZ=    0.2659   -0.9528  -10.0343 Q=    0.4100 A=    0.0000 R=    0.0000 C=    0.0000
 XYZ=   -1.1240   -0.4249   -9.3590 Q=    0.4100 A=    0.0000 R=    0.0000 C=    0.0000
 XYZ=    7.0470   -6.5587    2.2691 Q=   -0.8200 A=    0.0000 R=    0.0000 C=    0.0000
 XYZ=    7.4158   -5.6292    2.2799 Q=    0.4100 A=    0.0000 R=    0.0000 C=    0.0000
 XYZ=    6.0501   -6.5224    2.3395 Q=    0.4100 A=    0.0000 R=    0.0000 C=    0.0000
 XYZ=   -6.8468   -4.1618   -4.5057 Q=   -0.8200 A=    0.0000 R=    0.0000 C=    0.0000
 XYZ=   -7.1073   -3.5971   -5.2888 Q=    0.4100 A=    0.0000 R=    0.0000 C=    0.0000
 XYZ=   -6.3071   -3.6152   -3.8654 Q=    0.4100 A=    0.0000 R=    0.0000 C=    0.0000
 XYZ=   -4.2139    3.6516   -7.4314 Q=   -0.8200 A=    0.0000 R=    0.0000 C=    0.0000
 XYZ=   -5.0926    3.1769   -7.4830 Q=    0.4100 A=    0.0000 R=    0.0000 C=    0.0000
 XYZ=   -4.3230    4.5911   -7.7563 Q=    0.4100 A=    0.0000 R=    0.0000 C=    0.0000
 XYZ=   -0.3772   -7.4496   -7.4039 Q=   -0.8200 A=    0.0000 R=    0.0000 C=    0.0000
 XYZ=   -1.0763   -7.8093   -6.7858 Q=    0.4100 A=    0.0000 R=    0.0000 C=    0.0000
 XYZ=    0.4845   -7.3444   -6.9074 Q=    0.4100 A=    0.0000 R=    0.0000 C=    0.0000
 XYZ=    6.3330   -2.3493   -7.8088 Q=   -0.8200 A=    0.0000 R=    0.0000 C=    0.0000
 XYZ=    6.0651   -1.4288   -7.5241 Q=    0.4100 A=    0.0000 R=    0.0000 C=    0.0000
 XYZ=    5.7867   -3.0239   -7.3124 Q=    0.4100 A=    0.0000 R=    0.0000 C=    0.0000
 XYZ=    8.1756   -1.1491   -4.3843 Q=   -0.8200 A=    0.0000 R=    0.0000 C=    0.0000
 XYZ=    8.6463   -0.6265   -3.6734 Q=    0.4100 A=    0.0000 R=    0.0000 C=    0.0000
 XYZ=    8.1255   -2.1104   -4.1131 Q=    0.4100 A=    0.0000 R=    0.0000 C=    0.0000
 XYZ=    9.4312   -0.8428   -2.3101 Q=   -0.8200 A=    0.0000 R=    0.0000 C=    0.0000
 XYZ=    8.5243   -0.8327   -1.8888 Q=    0.4100 A=    0.0000 R=    0.0000 C=    0.0000
 XYZ=   10.1228   -1.0130   -1.6081 Q=    0.4100 A=    0.0000 R=    0.0000 C=    0.0000
 XYZ=   -6.3334   -3.7864    3.5661 Q=   -0.8200 A=    0.0000 R=    0.0000 C=    0.0000
 XYZ=   -6.7572   -3.3721    4.3716 Q=    0.4100 A=    0.0000 R=    0.0000 C=    0.0000
 XYZ=   -5.7681   -4.5615    3.8485 Q=    0.4100 A=    0.0000 R=    0.0000 C=    0.0000
 XYZ=   -6.5081    4.8939    4.2545 Q=   -0.8200 A=    0.0000 R=    0.0000 C=    0.0000
 XYZ=   -7.2557    5.5038    3.9916 Q=    0.4100 A=    0.0000 R=    0.0000 C=    0.0000
 XYZ=   -6.8424    4.2230    4.9164 Q=    0.4100 A=    0.0000 R=    0.0000 C=    0.0000
 XYZ=   -2.5403    4.3150    8.4417 Q=   -0.8200 A=    0.0000 R=    0.0000 C=    0.0000
 XYZ=   -1.8051    4.6056    7.8293 Q=    0.4100 A=    0.0000 R=    0.0000 C=    0.0000
 XYZ=   -2.3713    3.3767    8.7435 Q=    0.4100 A=    0.0000 R=    0.0000 C=    0.0000
 XYZ=    8.9526   -1.1499    0.9349 Q=   -0.8200 A=    0.0000 R=    0.0000 C=    0.0000
 XYZ=    9.2591   -1.9935    1.3759 Q=    0.4100 A=    0.0000 R=    0.0000 C=    0.0000
 XYZ=    8.4194   -0.6087    1.5852 Q=    0.4100 A=    0.0000 R=    0.0000 C=    0.0000
 XYZ=    7.4599   -5.6566   -3.6444 Q=   -0.8200 A=    0.0000 R=    0.0000 C=    0.0000
 XYZ=    7.6165   -5.0645   -4.4349 Q=    0.4100 A=    0.0000 R=    0.0000 C=    0.0000
 XYZ=    8.2904   -6.1784   -3.4492 Q=    0.4100 A=    0.0000 R=    0.0000 C=    0.0000
 XYZ=   -8.4527    2.9829   -2.6722 Q=   -0.8200 A=    0.0000 R=    0.0000 C=    0.0000
 XYZ=   -7.8316    3.0882   -3.4488 Q=    0.4100 A=    0.0000 R=    0.0000 C=    0.0000
 XYZ=   -9.3874    2.8629   -3.0068 Q=    0.4100 A=    0.0000 R=    0.0000 C=    0.0000
 XYZ=    7.9803    3.4576   -0.7223 Q=   -0.8200 A=    0.0000 R=    0.0000 C=    0.0000
 XYZ=    7.4056    2.6498   -0.5913 Q=    0.4100 A=    0.0000 R=    0.0000 C=    0.0000
 XYZ=    8.4388    3.6834    0.1373 Q=    0.4100 A=    0.0000 R=    0.0000 C=    0.0000
 XYZ=   -0.1822   -3.8969   -9.7987 Q=   -0.8200 A=    0.0000 R=    0.0000 C=    0.0000
 XYZ=    0.4093   -3.0988   -9.9140 Q=    0.4100 A=    0.0000 R=    0.0000 C=    0.0000
 XYZ=    0.1116   -4.4163   -8.9962 Q=    0.4100 A=    0.0000 R=    0.0000 C=    0.0000
 XYZ=    1.3907    1.4687   -9.9746 Q=   -0.8200 A=    0.0000 R=    0.0000 C=    0.0000
 XYZ=    1.0266    2.3395  -10.3050 Q=    0.4100 A=    0.0000 R=    0.0000 C=    0.0000
 XYZ=    0.6360    0.8354   -9.8033 Q=    0.4100 A=    0.0000 R=    0.0000 C=    0.0000
 XYZ=   -6.2113   -5.3615    0.0080 Q=   -0.8200 A=    0.0000 R=    0.0000 C=    0.0000
 XYZ=   -6.7434   -5.1148   -0.8020 Q=    0.4100 A=    0.0000 R=    0.0000 C=    0.0000
 XYZ=   -5.9794   -6.3336   -0.0290 Q=    0.4100 A=    0.0000 R=    0.0000 C=    0.0000
 XYZ=   -2.1537   -9.1465    0.3400 Q=   -0.8200 A=    0.0000 R=    0.0000 C=    0.0000
 XYZ=   -2.0538   -9.8778    1.0148 Q=    0.4100 A=    0.0000 R=    0.0000 C=    0.0000
 XYZ=   -2.5707   -9.5147   -0.4910 Q=    0.4100 A=    0.0000 R=    0.0000 C=    0.0000
 XYZ=   -8.7547    1.8750    3.2722 Q=   -0.8200 A=    0.0000 R=    0.0000 C=    0.0000
 XYZ=   -8.4084    2.4229    2.5106 Q=    0.4100 A=    0.0000 R=    0.0000 C=    0.0000
 XYZ=   -8.1112    1.9218    4.0362 Q=    0.4100 A=    0.0000 R=    0.0000 C=    0.0000
 XYZ=    7.6187    4.8116    2.9317 Q=   -0.8200 A=    0.0000 R=    0.0000 C=    0.0000
 XYZ=    7.9712    4.4295    3.7860 Q=    0.4100 A=    0.0000 R=    0.0000 C=    0.0000
 XYZ=    6.7515    4.3699    2.7018 Q=    0.4100 A=    0.0000 R=    0.0000 C=    0.0000
 XYZ=   -2.0385   -8.4014   -6.0934 Q=   -0.8200 A=    0.0000 R=    0.0000 C=    0.0000
 XYZ=   -2.7481   -7.7506   -5.8232 Q=    0.4100 A=    0.0000 R=    0.0000 C=    0.0000
 XYZ=   -2.4475   -9.1331   -6.6388 Q=    0.4100 A=    0.0000 R=    0.0000 C=    0.0000
 XYZ=    6.1225    6.6004    3.1155 Q=   -0.8200 A=    0.0000 R=    0.0000 C=    0.0000
 XYZ=    5.3797    5.9795    3.3663 Q=    0.4100 A=    0.0000 R=    0.0000 C=    0.0000
 XYZ=    6.9571    6.0736    2.9544 Q=    0.4100 A=    0.0000 R=    0.0000 C=    0.0000
 XYZ=   -4.1080   -2.3814    7.7946 Q=   -0.8200 A=    0.0000 R=    0.0000 C=    0.0000
 XYZ=   -3.4121   -1.9169    8.3424 Q=    0.4100 A=    0.0000 R=    0.0000 C=    0.0000
 XYZ=   -4.4208   -3.1995    8.2774 Q=    0.4100 A=    0.0000 R=    0.0000 C=    0.0000
 XYZ=   -8.2384    5.0957   -1.6080 Q=   -0.8200 A=    0.0000 R=    0.0000 C=    0.0000
 XYZ=   -8.6349    5.8516   -2.1291 Q=    0.4100 A=    0.0000 R=    0.0000 C=    0.0000
 XYZ=   -8.2377    4.2681   -2.1694 Q=    0.4100 A=    0.0000 R=    0.0000 C=    0.0000
 XYZ=   -4.1244   -8.2621    1.7917 Q=   -0.8200 A=    0.0000 R=    0.0000 C=    0.0000
 XYZ=   -4.8552   -7.9478    1.1857 Q=    0.4100 A=    0.0000 R=    0.0000 C=    0.0000
 XYZ=   -3.3331   -8.5364    1.2452 Q=    0.4100 A=    0.0000 R=    0.0000 C=    0.0000
 XYZ=   -7.3290   -4.0368    1.4477 Q=   -0.8200 A=    0.0000 R=    0.0000 C=    0.0000
 XYZ=   -6.8188   -4.6440    0.8385 Q=    0.4100 A=    0.0000 R=    0.0000 C=    0.0000
 XYZ=   -6.8653   -3.9858    2.3323 Q=    0.4100 A=    0.0000 R=    0.0000 C=    0.0000
 XYZ=   -3.8521   -7.0272   -5.8409 Q=   -0.8200 A=    0.0000 R=    0.0000 C=    0.0000
 XYZ=   -4.1366   -7.4372   -6.7075 Q=    0.4100 A=    0.0000 R=    0.0000 C=    0.0000
 XYZ=   -4.6567   -6.8625   -5.2702 Q=    0.4100 A=    0.0000 R=    0.0000 C=    0.0000
 XYZ=   -4.9122    9.4401   -1.5337 Q=   -0.8200 A=    0.0000 R=    0.0000 C=    0.0000
 XYZ=   -5.2258   10.3012   -1.1334 Q=    0.4100 A=    0.0000 R=    0.0000 C=    0.0000
 XYZ=   -4.0170    9.2036   -1.1559 Q=    0.4100 A=    0.0000 R=    0.0000 C=    0.0000
 XYZ=   -4.5021    9.1782   -3.7605 Q=   -0.8200 A=    0.0000 R=    0.0000 C=    0.0000
 XYZ=   -4.7984    9.4053   -2.8327 Q=    0.4100 A=    0.0000 R=    0.0000 C=    0.0000
 XYZ=   -4.2742    8.2057   -3.8088 Q=    0.4100 A=    0.0000 R=    0.0000 C=    0.0000
 XYZ=   -3.5468    3.1036   -9.8476 Q=   -0.8200 A=    0.0000 R=    0.0000 C=    0.0000
 XYZ=   -3.5887    3.1574   -8.8499 Q=    0.4100 A=    0.0000 R=    0.0000 C=    0.0000
 XYZ=   -3.6267    2.1486  -10.1335 Q=    0.4100 A=    0.0000 R=    0.0000 C=    0.0000
 XYZ=    6.3147    3.4568   -6.1267 Q=   -0.8200 A=    0.0000 R=    0.0000 C=    0.0000
 XYZ=    6.8157    4.2596   -6.4499 Q=    0.4100 A=    0.0000 R=    0.0000 C=    0.0000
 XYZ=    6.7659    3.0870   -5.3145 Q=    0.4100 A=    0.0000 R=    0.0000 C=    0.0000
 XYZ=   -3.5181    0.7884  -10.2695 Q=   -0.8200 A=    0.0000 R=    0.0000 C=    0.0000
 XYZ=   -3.1132    0.0756   -9.6969 Q=    0.4100 A=    0.0000 R=    0.0000 C=    0.0000
 XYZ=   -4.3931    0.4676  -10.6322 Q=    0.4100 A=    0.0000 R=    0.0000 C=    0.0000
 XYZ=    1.2207    2.9179   10.0506 Q=   -0.8200 A=    0.0000 R=    0.0000 C=    0.0000
 XYZ=    2.1518    2.9533    9.6873 Q=    0.4100 A=    0.0000 R=    0.0000 C=    0.0000
 XYZ=    0.6023    2.5646    9.3487 Q=    0.4100 A=    0.0000 R=    0.0000 C=    0.0000
 XYZ=   -0.8402   -7.4092    6.0344 Q=   -0.8200 A=    0.0000 R=    0.0000 C=    0.0000
 XYZ=   -1.6574   -7.1436    6.5460 Q=    0.4100 A=    0.0000 R=    0.0000 C=    0.0000
 XYZ=   -1.0883   -8.0790    5.3344 Q=    0.4100 A=    0.0000 R=    0.0000 C=    0.0000
 XYZ=   -1.7801  -10.1824   -4.4230 Q=   -0.8200 A=    0.0000 R=    0.0000 C=    0.0000
 XYZ=   -1.3924   -9.6647   -3.6603 Q=    0.4100 A=    0.0000 R=    0.0000 C=    0.0000
 XYZ=   -2.0488   -9.5519   -5.1513 Q=    0.4100 A=    0.0000 R=    0.0000 C=    0.0000
 XYZ=   -5.5931    6.6800    5.7581 Q=   -0.8200 A=    0.0000 R=    0.0000 C=    0.0000
 XYZ=   -6.3861    6.9963    6.2787 Q=    0.4100 A=    0.0000 R=    0.0000 C=    0.0000
 XYZ=   -5.8541    5.8936    5.1981 Q=    0.4100 A=    0.0000 R=    0.0000 C=    0.0000
 XYZ=    1.1244   -2.0245  -10.1938 Q=   -0.8200 A=    0.0000 R=    0.0000 C=    0.0000
 XYZ=    2.0640   -1.9563   -9.8583 Q=    0.4100 A=    0.0000 R=    0.0000 C=    0.0000
 XYZ=    1.0888   -1.7271  -11.1479 Q=    0.4100 A=    0.0000 R=    0.0000 C=    0.0000
 XYZ=    7.5780    2.5710   -4.2681 Q=   -0.8200 A=    0.0000 R=    0.0000 C=    0.0000
 XYZ=    7.7026    3.4827   -3.8765 Q=    0.4100 A=    0.0000 R=    0.0000 C=    0.0000
 XYZ=    8.3119    1.9695   -3.9524 Q=    0.4100 A=    0.0000 R=    0.0000 C=    0.0000
 XYZ=    7.6481   -4.7925   -5.7170 Q=   -0.8200 A=    0.0000 R=    0.0000 C=    0.0000
 XYZ=    8.2980   -4.0338   -5.7618 Q=    0.4100 A=    0.0000 R=    0.0000 C=    0.0000
 XYZ=    8.0932   -5.6315   -6.0300 Q=    0.4100 A=    0.0000 R=    0.0000 C=    0.0000
 XYZ=    4.6912    2.1973    8.0558 Q=   -0.8200 A=    0.0000 R=    0.0000 C=    0.0000
 XYZ=    5.4122    2.7821    7.6839 Q=    0.4100 A=    0.0000 R=    0.0000 C=    0.0000
 XYZ=    4.1797    2.7008    8.7522 Q=    0.4100 A=    0.0000 R=    0.0000 C=    0.0000
 XYZ=    6.7074    5.3742   -1.5240 Q=   -0.8200 A=    0.0000 R=    0.0000 C=    0.0000
 XYZ=    7.3264    4.7846   -1.0052 Q=    0.4100 A=    0.0000 R=    0.0000 C=    0.0000
 XYZ=    6.7981    6.3170   -1.2031 Q=    0.4100 A=    0.0000 R=    0.0000 C=    0.0000
 XYZ=   -9.4028    4.8062    2.1914 Q=   -0.8200 A=    0.0000 R=    0.0000 C=    0.0000
 XYZ=   -8.6906    4.1297    2.0039 Q=    0.4100 A=    0.0000 R=    0.0000 C=    0.0000
 XYZ=  -10.1798    4.3583    2.6337 Q=    0.4100 A=    0.0000 R=    0.0000 C=    0.0000
 XYZ=   -9.0946   -0.5660    3.0032 Q=   -0.8200 A=    0.0000 R=    0.0000 C=    0.0000
 XYZ=   -8.5121   -1.0251    2.3325 Q=    0.4100 A=    0.0000 R=    0.0000 C=    0.0000
 XYZ=   -8.8053    0.3864    3.0994 Q=    0.4100 A=    0.0000 R=    0.0000 C=    0.0000
 XYZ=   -6.4377    8.1574   -0.4037 Q=   -0.8200 A=    0.0000 R=    0.0000 C=    0.0000
 XYZ=   -5.8653    8.7243   -0.9962 Q=    0.4100 A=    0.0000 R=    0.0000 C=    0.0000
 XYZ=   -7.0672    8.7412    0.1092 Q=    0.4100 A=    0.0000 R=    0.0000 C=    0.0000
 XYZ=   -2.0575    2.2128    9.5188 Q=   -0.8200 A=    0.0000 R=    0.0000 C=    0.0000
 XYZ=   -2.7856    1.5284    9.4796 Q=    0.4100 A=    0.0000 R=    0.0000 C=    0.0000
 XYZ=   -1.8530    2.4275   10.4739 Q=    0.4100 A=    0.0000 R=    0.0000 C=    0.0000
 XYZ=    7.2850   -7.8479    0.3298 Q=   -0.8200 A=    0.0000 R=    0.0000 C=    0.0000
 XYZ=    7.1782   -7.2410    1.1174 Q=    0.4100 A=    0.0000 R=    0.0000 C=    0.0000
 XYZ=    7.8935   -8.6037    0.5716 Q=    0.4100 A=    0.0000 R=    0.0000 C=    0.0000
 XYZ=    9.8010   -3.2474    2.2002 Q=   -0.8200 A=    0.0000 R=    0.0000 C=    0.0000
 XYZ=    8.9011   -3.6770    2.1259 Q=    0.4100 A=    0.0000 R=    0.0000 C=    0.0000
 XYZ=   10.4594   -3.7543    1.6437 Q=    0.4100 A=    0.0000 R=    0.0000 C=    0.0000
 XYZ=   -7.5211   -2.9658    5.4128 Q=   -0.8200 A=    0.0000 R=    0.0000 C=    0.0000
 XYZ=   -8.3362   -2.4333    5.1844 Q=    0.4100 A=    0.0000 R=    0.0000 C=    0.0000
 XYZ=   -6.8930   -2.4008    5.9478 Q=    0.4100 A=    0.0000 R=    0.0000 C=    0.0000
 XYZ=    8.0571    3.3802    5.2575 Q=   -0.8200 A=    0.0000 R=    0.0000 C=    0.0000
 XYZ=    7.3893    2.9759    4.6325 Q=    0.4100 A=    0.0000 R=    0.0000 C=    0.0000
 XYZ=    8.8621    2.7894    5.3128 Q=    0.4100 A=    0.0000 R=    0.0000 C=    0.0000
 XYZ=  -10.3144    0.3646   -0.5722 Q=   -0.8200 A=    0.0000 R=    0.0000 C=    0.0000
 XYZ=  -10.4530    1.3328   -0.7805 Q=    0.4100 A=    0.0000 R=    0.0000 C=    0.0000
 XYZ=   -9.3379    0.1862   -0.4510 Q=    0.4100 A=    0.0000 R=    0.0000 C=    0.0000
 XYZ=   -0.1498   -4.6991    9.4742 Q=   -0.8200 A=    0.0000 R=    0.0000 C=    0.0000
 XYZ=    0.0393   -4.1845    8.6378 Q=    0.4100 A=    0.0000 R=    0.0000 C=    0.0000
 XYZ=    0.6250   -5.2968    9.6801 Q=    0.4100 A=    0.0000 R=    0.0000 C=    0.0000
 XYZ=   -7.3121   -5.0756   -2.2504 Q=   -0.8200 A=    0.0000 R=    0.0000 C=    0.0000
 XYZ=   -8.2839   -5.1769   -2.0371 Q=    0.4100 A=    0.0000 R=    0.0000 C=    0.0000
 XYZ=   -7.2099   -4.7307   -3.1835 Q=    0.4100 A=    0.0000 R=    0.0000 C=    0.0000
 XYZ=   -7.5702    3.7245    6.0820 Q=   -0.8200 A=    0.0000 R=    0.0000 C=    0.0000
 XYZ=   -7.5679    3.6581    7.0798 Q=    0.4100 A=    0.0000 R=    0.0000 C=    0.0000
 XYZ=   -7.3928    2.8228    5.6876 Q=    0.4100 A=    0.0000 R=    0.0000 C=    0.0000
 XYZ=   -3.7909    0.5818    9.6764 Q=   -0.8200 A=    0.0000 R=    0.0000 C=    0.0000
 XYZ=   -3.2609   -0.2463    9.4940 Q=    0.4100 A=    0.0000 R=    0.0000 C=    0.0000
 XYZ=   -4.3396    0.4512   10.5022 Q=    0.4100 A=    0.0000 R=    0.0000 C=    0.0000
 XYZ=   -4.2967    5.8947    7.8383 Q=   -0.8200 A=    0.0000 R=    0.0000 C=    0.0000
 XYZ=   -4.7240    5.8566    6.9349 Q=    0.4100 A=    0.0000 R=    0.0000 C=    0.0000
 XYZ=   -3.6549    5.1340    7.9358 Q=    0.4100 A=    0.0000 R=    0.0000 C=    0.0000
 XYZ=   -5.9169   -6.3863   -4.8863 Q=   -0.8200 A=    0.0000 R=    0.0000 C=    0.0000
 XYZ=   -6.3885   -5.5058   -4.9351 Q=    0.4100 A=    0.0000 R=    0.0000 C=    0.0000
 XYZ=   -6.1377   -6.8351   -4.0203 Q=    0.4100 A=    0.0000 R=    0.0000 C=    0.0000
 XYZ=   -3.9046   -6.2138   -8.8875 Q=   -0.8200 A=    0.0000 R=    0.0000 C=    0.0000
 XYZ=   -4.1490   -5.3809   -9.3841 Q=    0.4100 A=    0.0000 R=    0.0000 C=    0.0000
 XYZ=   -3.3079   -5.9809   -8.1194 Q=    0.4100 A=    0.0000 R=    0.0000 C=    0.0000
 XYZ=   -0.8146    9.2175    5.7133 Q=   -0.8200 A=    0.0000 R=    0.0000 C=    0.0000
 XYZ=   -0.1837    8.4562    5.5632 Q=    0.4100 A=    0.0000 R=    0.0000 C=    0.0000
 XYZ=   -1.6105    8.8946    6.2255 Q=    0.4100 A=    0.0000 R=    0.0000 C=    0.0000
 XYZ=    0.6506    3.7959  -10.7182 Q=   -0.8200 A=    0.0000 R=    0.0000 C=    0.0000
 XYZ=    0.2648    4.1509   -9.8666 Q=    0.4100 A=    0.0000 R=    0.0000 C=    0.0000
 XYZ=    1.1293    4.5305  -11.1990 Q=    0.4100 A=    0.0000 R=    0.0000 C=    0.0000
 XYZ=    9.7529    1.8304    1.6314 Q=   -0.8200 A=    0.0000 R=    0.0000 C=    0.0000
 XYZ=    8.9507    1.2841    1.8722 Q=    0.4100 A=    0.0000 R=    0.0000 C=    0.0000
 XYZ=    9.4815    2.7851    1.5092 Q=    0.4100 A=    0.0000 R=    0.0000 C=    0.0000
 XYZ=    9.2084   -4.9116   -0.8416 Q=   -0.8200 A=    0.0000 R=    0.0000 C=    0.0000
 XYZ=    9.2924   -4.5644   -1.7757 Q=    0.4100 A=    0.0000 R=    0.0000 C=    0.0000
 XYZ=    9.2158   -5.9115   -0.8558 Q=    0.4100 A=    0.0000 R=    0.0000 C=    0.0000
 XYZ=   -1.5786    1.0839  -11.3918 Q=   -0.8200 A=    0.0000 R=    0.0000 C=    0.0000
 XYZ=   -0.9275    0.6621  -10.7608 Q=    0.4100 A=    0.0000 R=    0.0000 C=    0.0000
 XYZ=   -2.5107    0.9130  -11.0725 Q=    0.4100 A=    0.0000 R=    0.0000 C=    0.0000
 XYZ=    5.6979    7.9935    1.2467 Q=   -0.8200 A=    0.0000 R=    0.0000 C=    0.0000
 XYZ=    6.2114    8.8231    1.4659 Q=    0.4100 A=    0.0000 R=    0.0000 C=    0.0000
 XYZ=    5.7108    7.3760    2.0332 Q=    0.4100 A=    0.0000 R=    0.0000 C=    0.0000
 XYZ=   -3.5343    9.7546    2.9368 Q=   -0.8200 A=    0.0000 R=    0.0000 C=    0.0000
 XYZ=   -3.9058    9.1975    3.6796 Q=    0.4100 A=    0.0000 R=    0.0000 C=    0.0000
 XYZ=   -4.1550   10.5158    2.7486 Q=    0.4100 A=    0.0000 R=    0.0000 C=    0.0000
 XYZ=  -10.0016    4.3274   -0.1705 Q=   -0.8200 A=    0.0000 R=    0.0000 C=    0.0000
 XYZ=   -9.2213    4.6548   -0.7034 Q=    0.4100 A=    0.0000 R=    0.0000 C=    0.0000
 XYZ=   -9.8926    4.6039    0.7844 Q=    0.4100 A=    0.0000 R=    0.0000 C=    0.0000
 XYZ=   -6.5490   -7.3697   -2.6695 Q=   -0.8200 A=    0.0000 R=    0.0000 C=    0.0000
 XYZ=   -6.7824   -6.4062   -2.5386 Q=    0.4100 A=    0.0000 R=    0.0000 C=    0.0000
 XYZ=   -7.3594   -7.8706   -2.9735 Q=    0.4100 A=    0.0000 R=    0.0000 C=    0.0000
 XYZ=    4.8307   -5.1983   -8.8536 Q=   -0.8200 A=    0.0000 R=    0.0000 C=    0.0000
 XYZ=    5.3127   -5.8349   -9.4557 Q=    0.4100 A=    0.0000 R=    0.0000 C=    0.0000
 XYZ=    4.8846   -4.2748   -9.2333 Q=    0.4100 A=    0.0000 R=    0.0000 C=    0.0000
 XYZ=    7.8743    4.7549   -3.4853 Q=   -0.8200 A=    0.0000 R=    0.0000 C=    0.0000
 XYZ=    7.3689    5.0292   -2.6670 Q=    0.4100 A=    0.0000 R=    0.0000 C=    0.0000
 XYZ=    8.8417    4.9805   -3.3706 Q=    0.4100 A=    0.0000 R=    0.0000 C=    0.0000
 XYZ=   -8.4299   -0.4125    6.5481 Q=   -0.8200 A=    0.0000 R=    0.0000 C=    0.0000
 XYZ=   -8.9288   -0.9393    5.8599 Q=    0.4100 A=    0.0000 R=    0.0000 C=    0.0000
 XYZ=   -7.4656   -0.6772    6.5359 Q=    0.4100 A=    0.0000 R=    0.0000 C=    0.0000
 XYZ=    9.2675    1.2818   -3.4059 Q=   -0.8200 A=    0.0000 R=    0.0000 C=    0.0000
 XYZ=    9.7540    2.0745   -3.0384 Q=    0.4100 A=    0.0000 R=    0.0000 C=    0.0000
 XYZ=    9.4398    0.4863   -2.8249 Q=    0.4100 A=    0.0000 R=    0.0000 C=    0.0000
 XYZ=   -5.9287   -7.6667    0.2677 Q=   -0.8200 A=    0.0000 R=    0.0000 C=    0.0000
 XYZ=   -6.6793   -7.7269    0.9258 Q=    0.4100 A=    0.0000 R=    0.0000 C=    0.0000
 XYZ=   -5.8606   -8.5257   -0.2397 Q=    0.4100 A=    0.0000 R=    0.0000 C=    0.0000
 XYZ=   -7.3447   -2.8930   -6.4576 Q=   -0.8200 A=    0.0000 R=    0.0000 C=    0.0000
 XYZ=   -6.8044   -3.3893   -7.1372 Q=    0.4100 A=    0.0000 R=    0.0000 C=    0.0000
 XYZ=   -7.8778   -2.1794   -6.9123 Q=    0.4100 A=    0.0000 R=    0.0000 C=    0.0000
 XYZ=    9.1182   -2.8168   -5.9564 Q=   -0.8200 A=    0.0000 R=    0.0000 C=    0.0000
 XYZ=    9.0123   -1.9757   -5.4260 Q=    0.4100 A=    0.0000 R=    0.0000 C=    0.0000
 XYZ=    9.1665   -2.5931   -6.9299 Q=    0.4100 A=    0.0000 R=    0.0000 C=    0.0000
 XYZ=    4.9326    5.3032    7.0643 Q=   -0.8200 A=    0.0000 R=    0.0000 C=    0.0000
 XYZ=    5.5174    6.1143    7.0561 Q=    0.4100 A=    0.0000 R=    0.0000 C=    0.0000
 XYZ=    5.5004    4.4838    7.1440 Q=    0.4100 A=    0.0000 R=    0.0000 C=    0.0000
 XYZ=   -7.4053    4.1292   -6.9208 Q=   -0.8200 A=    0.0000 R=    0.0000 C=    0.0000
 XYZ=   -6.9757    4.8419   -7.4754 Q=    0.4100 A=    0.0000 R=    0.0000 C=    0.0000
 XYZ=   -6.9911    3.2447   -7.1357 Q=    0.4100 A=    0.0000 R=    0.0000 C=    0.0000
 XYZ=   -2.2658   -3.0442  -10.4768 Q=   -0.8200 A=    0.0000 R=    0.0000 C=    0.0000
 XYZ=   -1.3651   -3.3877  -10.2107 Q=    0.4100 A=    0.0000 R=    0.0000 C=    0.0000
 XYZ=   -2.3137   -2.9709  -11.4730 Q=    0.4100 A=    0.0000 R=    0.0000 C=    0.0000
 XYZ=    5.1639   -2.8687   -9.8002 Q=   -0.8200 A=    0.0000 R=    0.0000 C=    0.0000
 XYZ=    5.5988   -2.8636  -10.7008 Q=    0.4100 A=    0.0000 R=    0.0000 C=    0.0000
 XYZ=    5.8460   -2.6594   -9.0995 Q=    0.4100 A=    0.0000 R=    0.0000 C=    0.0000
 XYZ=   -3.7446   -9.5681    3.5809 Q=   -0.8200 A=    0.0000 R=    0.0000 C=    0.0000
 XYZ=   -3.0112   -9.1489    4.1159 Q=    0.4100 A=    0.0000 R=    0.0000 C=    0.0000
 XYZ=   -3.9209   -9.0152    2.7665 Q=    0.4100 A=    0.0000 R=    0.0000 C=    0.0000
 XYZ=   -6.4855   -6.3515    5.5354 Q=   -0.8200 A=    0.0000 R=    0.0000 C=    0.0000
 XYZ=   -5.8806   -5.8816    4.8924 Q=    0.4100 A=    0.0000 R=    0.0000 C=    0.0000
 XYZ=   -7.2366   -5.7431    5.7918 Q=    0.4100 A=    0.0000 R=    0.0000 C=    0.0000
 XYZ=    2.7093   -0.1668  -11.2032 Q=   -0.8200 A=    0.0000 R=    0.0000 C=    0.0000
 XYZ=    2.1829    0.6071  -10.8511 Q=    0.4100 A=    0.0000 R=    0.0000 C=    0.0000
 XYZ=    3.1219   -0.6640  -10.4399 Q=    0.4100 A=    0.0000 R=    0.0000 C=    0.0000
 XYZ=   -4.4433    8.5801    4.8883 Q=   -0.8200 A=    0.0000 R=    0.0000 C=    0.0000
 XYZ=   -5.0152    7.8656    5.2914 Q=    0.4100 A=    0.0000 R=    0.0000 C=    0.0000
 XYZ=   -4.8377    9.4765    5.0908 Q=    0.4100 A=    0.0000 R=    0.0000 C=    0.0000
 XYZ=    6.3774    6.0843   -4.6965 Q=   -0.8200 A=    0.0000 R=    0.0000 C=    0.0000
 XYZ=    7.0026    5.5291   -4.1480 Q=    0.4100 A=    0.0000 R=    0.0000 C=    0.0000
 XYZ=    6.5447    5.9138   -5.6675 Q=    0.4100 A=    0.0000 R=    0.0000 C=    0.0000
 XYZ=    6.4251    3.4618    7.2402 Q=   -0.8200 A=    0.0000 R=    0.0000 C=    0.0000
 XYZ=    6.9481    3.2699    6.4098 Q=    0.4100 A=    0.0000 R=    0.0000 C=    0.0000
 XYZ=    7.0542    3.6197    8.0013 Q=    0.4100 A=    0.0000 R=    0.0000 C=    0.0000
 XYZ=   -1.3138   10.3541    3.5628 Q=   -0.8200 A=    0.0000 R=    0.0000 C=    0.0000
 XYZ=   -2.2763   10.1788    3.3558 Q=    0.4100 A=    0.0000 R=    0.0000 C=    0.0000
 XYZ=   -1.0792    9.9326    4.4388 Q=    0.4100 A=    0.0000 R=    0.0000 C=    0.0000
 XYZ=    9.1180   -7.1970   -0.7624 Q=   -0.8200 A=    0.0000 R=    0.0000 C=    0.0000
 XYZ=    8.2016   -7.3925   -0.4132 Q=    0.4100 A=    0.0000 R=    0.0000 C=    0.0000
 XYZ=    9.7617   -7.8750   -0.4072 Q=    0.4100 A=    0.0000 R=    0.0000 C=    0.0000
 XYZ=   -2.7538   -6.7866    7.1339 Q=   -0.8200 A=    0.0000 R=    0.0000 C=    0.0000
 XYZ=   -2.4810   -6.3867    8.0089 Q=    0.4100 A=    0.0000 R=    0.0000 C=    0.0000
 XYZ=   -3.5949   -7.3136    7.2561 Q=    0.4100 A=    0.0000 R=    0.0000 C=    0.0000
 XYZ=   -4.0619    6.2033   -7.9550 Q=   -0.8200 A=    0.0000 R=    0.0000 C=    0.0000
 XYZ=   -3.8482    6.8839   -8.6558 Q=    0.4100 A=    0.0000 R=    0.0000 C=    0.0000
 XYZ=   -5.0434    6.2182   -7.7642 Q=    0.4100 A=    0.0000 R=    0.0000 C=    0.0000
 XYZ=   -0.1071   -8.6494   -9.3060 Q=   -0.8200 A=    0.0000 R=    0.0000 C=    0.0000
 XYZ=    0.3163   -8.1763  -10.0787 Q=    0.4100 A=    0.0000 R=    0.0000 C=    0.0000
 XYZ=   -0.1926   -8.0182   -8.5351 Q=    0.4100 A=    0.0000 R=    0.0000 C=    0.0000
 XYZ=   -1.0477    6.1058  -10.4125 Q=   -0.8200 A=    0.0000 R=    0.0000 C=    0.0000
 XYZ=   -1.5848    5.4303  -10.9178 Q=    0.4100 A=    0.0000 R=    0.0000 C=    0.0000
 XYZ=   -0.7792    5.7241   -9.5280 Q=    0.4100 A=    0.0000 R=    0.0000 C=    0.0000
 XYZ=   -0.1026   11.9676    0.4305 Q=   -0.8200 A=    0.0000 R=    0.0000 C=    0.0000
 XYZ=    0.8739   12.1812    0.4019 Q=    0.4100 A=    0.0000 R=    0.0000 C=    0.0000
 XYZ=   -0.2769   11.1339   -0.0935 Q=    0.4100 A=    0.0000 R=    0.0000 C=    0.0000
 XYZ=    6.0023    0.7140    9.3931 Q=   -0.8200 A=    0.0000 R=    0.0000 C=    0.0000
 XYZ=    5.3703    1.2857    8.8698 Q=    0.4100 A=    0.0000 R=    0.0000 C=    0.0000
 XYZ=    6.8588    1.2097    9.5371 Q=    0.4100 A=    0.0000 R=    0.0000 C=    0.0000
 XYZ=   -2.8286    8.2084    6.6919 Q=   -0.8200 A=    0.0000 R=    0.0000 C=    0.0000
 XYZ=   -3.3765    8.5232    5.9168 Q=    0.4100 A=    0.0000 R=    0.0000 C=    0.0000
 XYZ=   -3.2668    7.4116    7.1080 Q=    0.4100 A=    0.0000 R=    0.0000 C=    0.0000
 XYZ=    8.4894   -2.7066   -8.4604 Q=   -0.8200 A=    0.0000 R=    0.0000 C=    0.0000
 XYZ=    7.5876   -2.4738   -8.0965 Q=    0.4100 A=    0.0000 R=    0.0000 C=    0.0000
 XYZ=    8.3826   -3.2307   -9.3054 Q=    0.4100 A=    0.0000 R=    0.0000 C=    0.0000
 XYZ=   10.9426   -0.7969   -0.5233 Q=   -0.8200 A=    0.0000 R=    0.0000 C=    0.0000
 XYZ=   11.7727   -0.8876    0.0270 Q=    0.4100 A=    0.0000 R=    0.0000 C=    0.0000
 XYZ=   10.1404   -0.9201    0.0609 Q=    0.4100 A=    0.0000 R=    0.0000 C=    0.0000
 XYZ=   -2.8565    9.9087   -5.3302 Q=   -0.8200 A=    0.0000 R=    0.0000 C=    0.0000
 XYZ=   -3.5411    9.6023   -4.6687 Q=    0.4100 A=    0.0000 R=    0.0000 C=    0.0000
 XYZ=   -2.6819    9.1789   -5.9913 Q=    0.4100 A=    0.0000 R=    0.0000 C=    0.0000
 XYZ=    9.2232    3.9869    1.3304 Q=   -0.8200 A=    0.0000 R=    0.0000 C=    0.0000
 XYZ=    8.4914    4.2201    1.9708 Q=    0.4100 A=    0.0000 R=    0.0000 C=    0.0000
 XYZ=   10.0709    4.4340    1.6159 Q=    0.4100 A=    0.0000 R=    0.0000 C=    0.0000
 XYZ=   -5.7042   -9.4360   -1.6771 Q=   -0.8200 A=    0.0000 R=    0.0000 C=    0.0000
 XYZ=   -6.5404   -9.9816   -1.6207 Q=    0.4100 A=    0.0000 R=    0.0000 C=    0.0000
 XYZ=   -5.9016   -8.5701   -2.1368 Q=    0.4100 A=    0.0000 R=    0.0000 C=    0.0000
 XYZ=   -6.3215   -6.3017   -7.1532 Q=   -0.8200 A=    0.0000 R=    0.0000 C=    0.0000
 XYZ=   -5.8103   -7.0020   -7.6515 Q=    0.4100 A=    0.0000 R=    0.0000 C=    0.0000
 XYZ=   -6.1350   -6.3863   -6.1744 Q=    0.4100 A=    0.0000 R=    0.0000 C=    0.0000
 XYZ=    6.8413    7.7399   -0.7936 Q=   -0.8200 A=    0.0000 R=    0.0000 C=    0.0000
 XYZ=    6.2113    8.1635   -1.4446 Q=    0.4100 A=    0.0000 R=    0.0000 C=    0.0000
 XYZ=    6.4885    7.8556    0.1349 Q=    0.4100 A=    0.0000 R=    0.0000 C=    0.0000
 XYZ=    8.2688   -8.4136    3.2347 Q=   -0.8200 A=    0.0000 R=    0.0000 C=    0.0000
 XYZ=    7.7270   -7.6188    2.9610 Q=    0.4100 A=    0.0000 R=    0.0000 C=    0.0000
 XYZ=    8.0846   -8.6282    4.1939 Q=    0.4100 A=    0.0000 R=    0.0000 C=    0.0000
 XYZ=    3.5397    3.5520    9.6671 Q=   -0.8200 A=    0.0000 R=    0.0000 C=    0.0000
 XYZ=    4.1687    3.4584   10.4388 Q=    0.4100 A=    0.0000 R=    0.0000 C=    0.0000
 XYZ=    3.6233    4.4696    9.2784 Q=    0.4100 A=    0.0000 R=    0.0000 C=    0.0000
 XYZ=   -1.1736   -2.8980   10.4971 Q=   -0.8200 A=    0.0000 R=    0.0000 C=    0.0000
 XYZ=   -0.6198   -3.5910   10.0356 Q=    0.4100 A=    0.0000 R=    0.0000 C=    0.0000
 XYZ=   -1.8963   -3.3455   11.0240 Q=    0.4100 A=    0.0000 R=    0.0000 C=    0.0000
 XYZ=   -4.3135   -4.2858  -10.0843 Q=   -0.8200 A=    0.0000 R=    0.0000 C=    0.0000
 XYZ=   -4.7250   -4.1935  -10.9910 Q=    0.4100 A=    0.0000 R=    0.0000 C=    0.0000
 XYZ=   -3.4557   -3.7727  -10.0538 Q=    0.4100 A=    0.0000 R=    0.0000 C=    0.0000
 XYZ=   -0.5332   -5.5537  -11.3858 Q=   -0.8200 A=    0.0000 R=    0.0000 C=    0.0000
 XYZ=   -1.3436   -6.1140  -11.2149 Q=    0.4100 A=    0.0000 R=    0.0000 C=    0.0000
 XYZ=   -0.3820   -4.9409  -10.6100 Q=    0.4100 A=    0.0000 R=    0.0000 C=    0.0000
 XYZ=   -3.7381  -10.3984   -1.3513 Q=   -0.8200 A=    0.0000 R=    0.0000 C=    0.0000
 XYZ=   -3.5871  -10.9167   -2.1931 Q=    0.4100 A=    0.0000 R=    0.0000 C=    0.0000
 XYZ=   -4.5970   -9.8912   -1.4218 Q=    0.4100 A=    0.0000 R=    0.0000 C=    0.0000
 XYZ=   -9.3966   -1.8520    4.8515 Q=   -0.8200 A=    0.0000 R=    0.0000 C=    0.0000
 XYZ=   -9.2781   -1.2573    4.0563 Q=    0.4100 A=    0.0000 R=    0.0000 C=    0.0000
 XYZ=  -10.2062   -2.4244    4.7218 Q=    0.4100 A=    0.0000 R=    0.0000 C=    0.0000
 XYZ=   -5.6724    4.0462   -9.7037 Q=   -0.8200 A=    0.0000 R=    0.0000 C=    0.0000
 XYZ=   -6.2004    3.2186   -9.8941 Q=    0.4100 A=    0.0000 R=    0.0000 C=    0.0000
 XYZ=   -4.6965    3.8284   -9.7126 Q=    0.4100 A=    0.0000 R=    0.0000 C=    0.0000
 XYZ=   -8.5148    6.7350    3.3833 Q=   -0.8200 A=    0.0000 R=    0.0000 C=    0.0000
 XYZ=   -8.7486    6.7507    4.3555 Q=    0.4100 A=    0.0000 R=    0.0000 C=    0.0000
 XYZ=   -8.9609    5.9541    2.9459 Q=    0.4100 A=    0.0000 R=    0.0000 C=    0.0000
 XYZ=   -1.2568  -10.8786    2.2606 Q=   -0.8200 A=    0.0000 R=    0.0000 C=    0.0000
 XYZ=   -0.6202  -11.5196    1.8318 Q=    0.4100 A=    0.0000 R=    0.0000 C=    0.0000
 XYZ=   -2.0754  -11.3702    2.5574 Q=    0.4100 A=    0.0000 R=    0.0000 C=    0.0000
 XYZ=    3.8243    6.0493    9.1100 Q=   -0.8200 A=    0.0000 R=    0.0000 C=    0.0000
 XYZ=    4.5745    6.3455    9.7012 Q=    0.4100 A=    0.0000 R=    0.0000 C=    0.0000
 XYZ=    4.1674    5.9088    8.1812 Q=    0.4100 A=    0.0000 R=    0.0000 C=    0.0000
 XYZ=   -8.8823   -5.6519    2.1602 Q=   -0.8200 A=    0.0000 R=    0.0000 C=    0.0000
 XYZ=   -9.4796   -5.9554    1.4177 Q=    0.4100 A=    0.0000 R=    0.0000 C=    0.0000
 XYZ=   -8.2859   -4.9201    1.8302 Q=    0.4100 A=    0.0000 R=    0.0000 C=    0.0000
 XYZ=    9.5012   -6.7862   -2.9986 Q=   -0.8200 A=    0.0000 R=    0.0000 C=    0.0000
 XYZ=    9.2197   -6.9935   -2.0617 Q=    0.4100 A=    0.0000 R=    0.0000 C=    0.0000
 XYZ=   10.4097   -7.1691   -3.1660 Q=    0.4100 A=    0.0000 R=    0.0000 C=    0.0000
 XYZ=  -11.0004    0.0186    1.6783 Q=   -0.8200 A=    0.0000 R=    0.0000 C=    0.0000
 XYZ=  -10.8012    0.1861    0.7128 Q=    0.4100 A=    0.0000 R=    0.0000 C=    0.0000
 XYZ=  -10.1495   -0.1801    2.1646 Q=    0.4100 A=    0.0000 R=    0.0000 C=    0.0000
 XYZ=   10.2397    2.8333   -2.0566 Q=   -0.8200 A=    0.0000 R=    0.0000 C=    0.0000
 XYZ=    9.3817    2.9886   -1.5669 Q=    0.4100 A=    0.0000 R=    0.0000 C=    0.0000
 XYZ=   10.8575    2.2945   -1.4839 Q=    0.4100 A=    0.0000 R=    0.0000 C=    0.0000
 XYZ=   -7.6490    0.8863   -8.4847 Q=   -0.8200 A=    0.0000 R=    0.0000 C=    0.0000
 XYZ=   -8.5070    1.3552   -8.2748 Q=    0.4100 A=    0.0000 R=    0.0000 C=    0.0000
 XYZ=   -7.7318   -0.0818   -8.2484 Q=    0.4100 A=    0.0000 R=    0.0000 C=    0.0000
 XYZ=  -11.0559    2.4818   -1.1083 Q=   -0.8200 A=    0.0000 R=    0.0000 C=    0.0000
 XYZ=  -12.0089    2.4946   -0.8053 Q=    0.4100 A=    0.0000 R=    0.0000 C=    0.0000
 XYZ=  -10.5433    3.1920   -0.6257 Q=    0.4100 A=    0.0000 R=    0.0000 C=    0.0000
 XYZ=   10.9355   -4.5904    0.7486 Q=   -0.8200 A=    0.0000 R=    0.0000 C=    0.0000
 XYZ=   10.2058   -4.5464    0.0662 Q=    0.4100 A=    0.0000 R=    0.0000 C=    0.0000
 XYZ=   11.1761   -5.5461    0.9181 Q=    0.4100 A=    0.0000 R=    0.0000 C=    0.0000
 XYZ=    4.5494   -1.2524    9.8731 Q=   -0.8200 A=    0.0000 R=    0.0000 C=    0.0000
 XYZ=    5.1653   -0.5301    9.5584 Q=    0.4100 A=    0.0000 R=    0.0000 C=    0.0000
 XYZ=    5.0496   -2.1166    9.9273 Q=    0.4100 A=    0.0000 R=    0.0000 C=    0.0000
 XYZ=    0.4924    5.1579   10.5163 Q=   -0.8200 A=    0.0000 R=    0.0000 C=    0.0000
 XYZ=   -0.2732    5.2231   11.1563 Q=    0.4100 A=    0.0000 R=    0.0000 C=    0.0000
 XYZ=    0.8035    4.2088   10.4645 Q=    0.4100 A=    0.0000 R=    0.0000 C=    0.0000
 XYZ=   -3.1678    5.5781   10.5972 Q=   -0.8200 A=    0.0000 R=    0.0000 C=    0.0000
 XYZ=   -3.2750    6.5464   10.3714 Q=    0.4100 A=    0.0000 R=    0.0000 C=    0.0000
 XYZ=   -3.0461    5.0512    9.7560 Q=    0.4100 A=    0.0000 R=    0.0000 C=    0.0000
 XYZ=  -11.0748    1.7512    3.4071 Q=   -0.8200 A=    0.0000 R=    0.0000 C=    0.0000
 XYZ=  -10.0895    1.7433    3.5780 Q=    0.4100 A=    0.0000 R=    0.0000 C=    0.0000
 XYZ=  -11.2895    1.1159    2.6652 Q=    0.4100 A=    0.0000 R=    0.0000 C=    0.0000
 XYZ=   -6.4834   -4.4010   -8.4119 Q=   -0.8200 A=    0.0000 R=    0.0000 C=    0.0000
 XYZ=   -5.6536   -4.3643   -8.9687 Q=    0.4100 A=    0.0000 R=    0.0000 C=    0.0000
 XYZ=   -6.4622   -5.2182   -7.8358 Q=    0.4100 A=    0.0000 R=    0.0000 C=    0.0000
 XYZ=   -2.2363   -5.9124    9.1658 Q=   -0.8200 A=    0.0000 R=    0.0000 C=    0.0000
 XYZ=   -1.3763   -5.4417    9.3632 Q=    0.4100 A=    0.0000 R=    0.0000 C=    0.0000
 XYZ=   -2.9938   -5.2625    9.2280 Q=    0.4100 A=    0.0000 R=    0.0000 C=    0.0000
 XYZ=   -6.3437    5.1630    9.0923 Q=   -0.8200 A=    0.0000 R=    0.0000 C=    0.0000
 XYZ=   -6.7984    6.0524    9.1397 Q=    0.4100 A=    0.0000 R=    0.0000 C=    0.0000
 XYZ=   -5.5399    5.2306    8.5014 Q=    0.4100 A=    0.0000 R=    0.0000 C=    0.0000
 XYZ=   -3.2737  -11.8355   -3.3310 Q=   -0.8200 A=    0.0000 R=    0.0000 C=    0.0000
 XYZ=   -2.7114  -11.1399   -3.7784 Q=    0.4100 A=    0.0000 R=    0.0000 C=    0.0000
 XYZ=   -3.7110  -12.4075   -4.0251 Q=    0.4100 A=    0.0000 R=    0.0000 C=    0.0000
 XYZ=   -3.0387  -11.6428    0.4095 Q=   -0.8200 A=    0.0000 R=    0.0000 C=    0.0000
 XYZ=   -3.3296  -11.0806   -0.3646 Q=    0.4100 A=    0.0000 R=    0.0000 C=    0.0000
 XYZ=   -2.2974  -12.2490    0.1212 Q=    0.4100 A=    0.0000 R=    0.0000 C=    0.0000
 XYZ=   -2.4958    4.4438  -11.6510 Q=   -0.8200 A=    0.0000 R=    0.0000 C=    0.0000
 XYZ=   -2.9717    3.7941  -11.0581 Q=    0.4100 A=    0.0000 R=    0.0000 C=    0.0000
 XYZ=   -1.7260    3.9864  -12.0964 Q=    0.4100 A=    0.0000 R=    0.0000 C=    0.0000
 XYZ=   -0.2845   12.2420    2.7849 Q=   -0.8200 A=    0.0000 R=    0.0000 C=    0.0000
 XYZ=   -0.7339   11.4130    3.1178 Q=    0.4100 A=    0.0000 R=    0.0000 C=    0.0000
 XYZ=   -0.1766   12.1869    1.7923 Q=    0.4100 A=    0.0000 R=    0.0000 C=    0.0000
 XYZ=   -4.8380   -7.9939   -7.8886 Q=   -0.8200 A=    0.0000 R=    0.0000 C=    0.0000
 XYZ=   -4.4334   -7.2699   -8.4472 Q=    0.4100 A=    0.0000 R=    0.0000 C=    0.0000
 XYZ=   -4.2667   -8.8131   -7.9399 Q=    0.4100 A=    0.0000 R=    0.0000 C=    0.0000
 XYZ=    7.2598    7.6985    5.1255 Q=   -0.8200 A=    0.0000 R=    0.0000 C=    0.0000
 XYZ=    7.8780    6.9494    5.3635 Q=    0.4100 A=    0.0000 R=    0.0000 C=    0.0000
 XYZ=    6.6989    7.4317    4.3418 Q=    0.4100 A=    0.0000 R=    0.0000 C=    0.0000
 XYZ=   -1.2995  -12.0444   -5.8086 Q=   -0.8200 A=    0.0000 R=    0.0000 C=    0.0000
 XYZ=   -0.7051  -12.7992   -5.5312 Q=    0.4100 A=    0.0000 R=    0.0000 C=    0.0000
 XYZ=   -1.2182  -11.2966   -5.1496 Q=    0.4100 A=    0.0000 R=    0.0000 C=    0.0000
 XYZ=   -4.1678   -4.3364    9.4720 Q=   -0.8200 A=    0.0000 R=    0.0000 C=    0.0000
 XYZ=   -4.8845   -5.0313    9.4131 Q=    0.4100 A=    0.0000 R=    0.0000 C=    0.0000
 XYZ=   -3.9308   -4.1826   10.4313 Q=    0.4100 A=    0.0000 R=    0.0000 C=    0.0000
 XYZ=    3.4985   -9.9553   -8.8560 Q=   -0.8200 A=    0.0000 R=    0.0000 C=    0.0000
 XYZ=    2.5957  -10.3510   -8.6875 Q=    0.4100 A=    0.0000 R=    0.0000 C=    0.0000
 XYZ=    3.5443   -9.0437   -8.4473 Q=    0.4100 A=    0.0000 R=    0.0000 C=    0.0000
 XYZ=   -7.6328   -7.7205    1.9395 Q=   -0.8200 A=    0.0000 R=    0.0000 C=    0.0000
 XYZ=   -7.9781   -6.7844    2.0072 Q=    0.4100 A=    0.0000 R=    0.0000 C=    0.0000
 XYZ=   -7.4651   -8.0810    2.8572 Q=    0.4100 A=    0.0000 R=    0.0000 C=    0.0000
 XYZ=    0.5715    2.3520   12.2770 Q=   -0.8200 A=    0.0000 R=    0.0000 C=    0.0000
 XYZ=    0.9742    2.5412   11.3814 Q=    0.4100 A=    0.0000 R=    0.0000 C=    0.0000
 XYZ=    1.0067    1.5439   12.6741 Q=    0.4100 A=    0.0000 R=    0.0000 C=    0.0000
 XYZ=    1.1296   -1.3009  -12.4002 Q=   -0.8200 A=    0.0000 R=    0.0000 C=    0.0000
 XYZ=    1.9201   -0.8459  -11.9901 Q=    0.4100 A=    0.0000 R=    0.0000 C=    0.0000
 XYZ=    1.3374   -1.5393  -13.3489 Q=    0.4100 A=    0.0000 R=    0.0000 C=    0.0000
 XYZ=    7.0711    5.5445   -7.0547 Q=   -0.8200 A=    0.0000 R=    0.0000 C=    0.0000
 XYZ=    7.9275    6.0220   -6.8579 Q=    0.4100 A=    0.0000 R=    0.0000 C=    0.0000
 XYZ=    6.9622    5.4497   -8.0442 Q=    0.4100 A=    0.0000 R=    0.0000 C=    0.0000
 XYZ=   -8.8583    5.7997    6.0101 Q=   -0.8200 A=    0.0000 R=    0.0000 C=    0.0000
 XYZ=   -8.4379    4.8985    6.1157 Q=    0.4100 A=    0.0000 R=    0.0000 C=    0.0000
 XYZ=   -8.2744    6.4916    6.4349 Q=    0.4100 A=    0.0000 R=    0.0000 C=    0.0000
 XYZ=   -6.3304    5.7373   -8.2246 Q=   -0.8200 A=    0.0000 R=    0.0000 C=    0.0000
 XYZ=   -6.8240    6.5375   -8.5653 Q=    0.4100 A=    0.0000 R=    0.0000 C=    0.0000
 XYZ=   -6.1404    5.1148   -8.9839 Q=    0.4100 A=    0.0000 R=    0.0000 C=    0.0000
 XYZ=   -8.3235   -5.0648    5.9539 Q=   -0.8200 A=    0.0000 R=    0.0000 C=    0.0000
 XYZ=   -8.9150   -5.3211    5.1894 Q=    0.4100 A=    0.0000 R=    0.0000 C=    0.0000
 XYZ=   -8.2350   -4.0692    5.9876 Q=    0.4100 A=    0.0000 R=    0.0000 C=    0.0000
 XYZ=   -8.5192   -1.3836   -7.9046 Q=   -0.8200 A=    0.0000 R=    0.0000 C=    0.0000
 XYZ=   -9.4307   -0.9721   -7.8973 Q=    0.4100 A=    0.0000 R=    0.0000 C=    0.0000
 XYZ=   -8.4295   -1.9806   -8.7019 Q=    0.4100 A=    0.0000 R=    0.0000 C=    0.0000
 XYZ=   -0.7335    2.8407  -12.5964 Q=   -0.8200 A=    0.0000 R=    0.0000 C=    0.0000
 XYZ=   -0.0208    3.1166  -11.9515 Q=    0.4100 A=    0.0000 R=    0.0000 C=    0.0000
 XYZ=   -1.2056    2.0321  -12.2454 Q=    0.4100 A=    0.0000 R=    0.0000 C=    0.0000
 XYZ=   -1.1754   -0.8163  -12.8351 Q=   -0.8200 A=    0.0000 R=    0.0000 C=    0.0000
 XYZ=   -1.3273    0.0140  -12.2989 Q=    0.4100 A=    0.0000 R=    0.0000 C=    0.0000
 XYZ=   -0.2261   -1.1124  -12.7293 Q=    0.4100 A=    0.0000 R=    0.0000 C=    0.0000
 XYZ=  -10.6972    2.8311   -3.3084 Q=   -0.8200 A=    0.0000 R=    0.0000 C=    0.0000
 XYZ=  -10.9439    2.6694   -2.3529 Q=    0.4100 A=    0.0000 R=    0.0000 C=    0.0000
 XYZ=  -11.4160    2.4718   -3.9036 Q=    0.4100 A=    0.0000 R=    0.0000 C=    0.0000
 XYZ=   -5.7453   11.0182   -4.7073 Q=   -0.8200 A=    0.0000 R=    0.0000 C=    0.0000
 XYZ=   -5.4404   10.1834   -4.2488 Q=    0.4100 A=    0.0000 R=    0.0000 C=    0.0000
 XYZ=   -4.9887   11.4034   -5.2359 Q=    0.4100 A=    0.0000 R=    0.0000 C=    0.0000
 XYZ=   -5.8449   11.1499   -0.0357 Q=   -0.8200 A=    0.0000 R=    0.0000 C=    0.0000
 XYZ=   -6.2711   12.0066   -0.3267 Q=    0.4100 A=    0.0000 R=    0.0000 C=    0.0000
 XYZ=   -6.5515   10.5164    0.2796 Q=    0.4100 A=    0.0000 R=    0.0000 C=    0.0000
 XYZ=   -7.9616    9.2144    3.2835 Q=   -0.8200 A=    0.0000 R=    0.0000 C=    0.0000
 XYZ=   -8.3053    8.2753    3.2722 Q=    0.4100 A=    0.0000 R=    0.0000 C=    0.0000
 XYZ=   -7.6088    9.4293    4.1942 Q=    0.4100 A=    0.0000 R=    0.0000 C=    0.0000
 XYZ=   -7.5210    9.7967    0.9928 Q=   -0.8200 A=    0.0000 R=    0.0000 C=    0.0000
 XYZ=   -8.3220   10.2335    0.5834 Q=    0.4100 A=    0.0000 R=    0.0000 C=    0.0000
 XYZ=   -7.7171    9.5682    1.9465 Q=    0.4100 A=    0.0000 R=    0.0000 C=    0.0000
 XYZ=   -5.3143   -7.3986    7.4114 Q=   -0.8200 A=    0.0000 R=    0.0000 C=    0.0000
 XYZ=   -5.7381   -6.9579    6.6201 Q=    0.4100 A=    0.0000 R=    0.0000 C=    0.0000
 XYZ=   -5.2343   -6.7379    8.1578 Q=    0.4100 A=    0.0000 R=    0.0000 C=    0.0000
 XYZ=   11.5221   -2.4923    3.6741 Q=   -0.8200 A=    0.0000 R=    0.0000 C=    0.0000
 XYZ=   10.8565   -2.8585    3.0237 Q=    0.4100 A=    0.0000 R=    0.0000 C=    0.0000
 XYZ=   11.0443   -2.1531    4.4845 Q=    0.4100 A=    0.0000 R=    0.0000 C=    0.0000
 XYZ=   -6.9639    2.2529  -10.3862 Q=   -0.8200 A=    0.0000 R=    0.0000 C=    0.0000
 XYZ=   -7.3260    1.7452   -9.6045 Q=    0.4100 A=    0.0000 R=    0.0000 C=    0.0000
 XYZ=   -7.6460    2.2704  -11.1172 Q=    0.4100 A=    0.0000 R=    0.0000 C=    0.0000
 XYZ=    0.7129   -7.5924  -11.0744 Q=   -0.8200 A=    0.0000 R=    0.0000 C=    0.0000
 XYZ=    0.3723   -6.6560  -10.9890 Q=    0.4100 A=    0.0000 R=    0.0000 C=    0.0000
 XYZ=    0.2451   -8.0495  -11.8308 Q=    0.4100 A=    0.0000 R=    0.0000 C=    0.0000
 XYZ=    8.6468    5.7433    5.7041 Q=   -0.8200 A=    0.0000 R=    0.0000 C=    0.0000
 XYZ=    8.5281    4.7661    5.5283 Q=    0.4100 A=    0.0000 R=    0.0000 C=    0.0000
 XYZ=    8.6609    5.9051    6.6909 Q=    0.4100 A=    0.0000 R=    0.0000 C=    0.0000
 XYZ=   -0.0971   -1.5824   12.5119 Q=   -0.8200 A=    0.0000 R=    0.0000 C=    0.0000
 XYZ=   -0.4063   -2.0512   11.6845 Q=    0.4100 A=    0.0000 R=    0.0000 C=    0.0000
 XYZ=   -0.8076   -0.9509   12.8225 Q=    0.4100 A=    0.0000 R=    0.0000 C=    0.0000
 XYZ=   -1.6388    2.9600   11.6730 Q=   -0.8200 A=    0.0000 R=    0.0000 C=    0.0000
 XYZ=   -0.7429    2.5979   11.9306 Q=    0.4100 A=    0.0000 R=    0.0000 C=    0.0000
 XYZ=   -1.6706    3.9403   11.8679 Q=    0.4100 A=    0.0000 R=    0.0000 C=    0.0000
[...]
    39  O    0.000000   0.000000   0.000000   0.000000   0.000000   0.000000
    40  H    0.000000   0.000000   0.000000   0.000000   0.000000   0.000000
    41  H    0.000000   0.000000   0.000000   0.000000   0.000000   0.000000
    42  O    0.000001   0.000197   0.000000   0.000000   0.000000   0.000000
    43  H    0.000000  -0.000003   0.000000   0.000000   0.000000   0.000000
    44  H    0.000000  -0.000004   0.000000   0.000000   0.000000   0.000000
    45  O    0.000000   0.000000  -0.080501   0.001893  -0.000304  -0.001792
    46  H    0.000000   0.000000   0.033654   0.000792  -0.000523  -0.000454
    47  H    0.000000   0.000000   0.002711   0.000057  -0.000003   0.000446
    48  O    0.000000   0.000000   0.000000   0.000000   0.000000  -0.000004
    49  H    0.000000   0.000000   0.000000   0.000000   0.000000   0.000000
    50  H    0.000000   0.000000   0.000000   0.000000   0.000000   0.000000
              31         32         33         34         35         36
     1  C    0.000129  -0.000003  -0.042500   0.000892  -0.001748  -0.000787
     2  H   -0.000001   0.000000  -0.000440   0.000015  -0.000064   0.000004
     3  H    0.000000   0.000000  -0.001737   0.000018   0.000028   0.000000
     4  C   -0.000381   0.000034   0.039722  -0.001318   0.001243   0.002824
     5  H    0.000000   0.000000  -0.000004   0.000000   0.000000   0.000000
     6  C    0.000290  -0.000026   0.001639   0.000055  -0.000001   0.001368
     7  H    0.000000   0.000000   0.000001   0.000000   0.000000   0.000251
     8  O   -0.000115  -0.000003   0.000180   0.000000   0.000002  -0.010393
     9  O    0.000000   0.000000   0.000000   0.000000   0.000000   0.007034
    10  H    0.000000   0.000000   0.000000   0.000000   0.000000  -0.000522
    11  H    0.000000   0.000000   0.000000   0.000000   0.000000   0.003854
    12  O   -0.000001   0.000000   0.000077   0.000000  -0.000002  -0.000598
    13  H    0.000000   0.000000   0.000000   0.000000   0.000000   0.000005
    14  H    0.000000   0.000000   0.000000   0.000000   0.000000   0.000017
    15  O    0.000000   0.000000  -0.000005   0.000000   0.000000   0.000001
    16  H    0.000000   0.000000   0.000000   0.000000   0.000000   0.000000
    17  H    0.000000   0.000000   0.000000   0.000000   0.000000   0.000000
    18  O    0.000060   0.001705   0.000002   0.000000   0.000000  -0.008947
    19  H   -0.000670   0.000009   0.000000   0.000000   0.000000   0.001470
    20  H    0.001273  -0.000082   0.000000   0.000000   0.000000  -0.000659
    21  O   -0.000052   0.000003   0.000001   0.000000   0.000000  -0.063830
    22  H   -0.000001   0.000000   0.000000   0.000000   0.000000  -0.000439
    23  H    0.000015   0.000000   0.000000   0.000000   0.000000   0.001389
    24  O    0.000000   0.000000  -0.000004   0.000000   0.000000   0.000000
    25  H    0.000000   0.000000   0.000000   0.000000   0.000000   0.000000
    26  H    0.000000   0.000000   0.000000   0.000000   0.000000   0.000000
    27  O    0.000019   0.000011  -0.086838   0.002190   0.001708   0.000000
    28  H   -0.000001  -0.000001   0.001906  -0.000004   0.000215   0.000000
    29  H    0.000000   0.000000   0.035034   0.001253  -0.004120   0.000000
    30  O    0.166317   0.205735   0.000007   0.000000   0.000000  -0.000414
    31  H    0.242427  -0.005403  -0.000002   0.000000   0.000000   0.000092
    32  H   -0.005403   0.162978   0.000000   0.000000   0.000000   0.000004
    33  O   -0.000002   0.000000   8.783143   0.207786   0.229651   0.000000
    34  H    0.000000   0.000000   0.207786   0.162239  -0.008006   0.000000
    35  H    0.000000   0.000000   0.229651  -0.008006   0.193378   0.000000
    36  O    0.000092   0.000004   0.000000   0.000000   0.000000   9.127371
    37  H   -0.000008   0.000000   0.000000   0.000000   0.000000   0.190254
    38  H   -0.000102   0.000000   0.000000   0.000000   0.000000   0.082523
    39  O    0.000000   0.000000   0.000000   0.000000   0.000000   0.000308
    40  H    0.000000   0.000000   0.000000   0.000000   0.000000  -0.000001
    41  H    0.000000   0.000000   0.000000   0.000000   0.000000   0.000258
    42  O    0.000000   0.000000   0.000000   0.000000   0.000000   0.000000
    43  H    0.000000   0.000000   0.000000   0.000000   0.000000   0.000000
    44  H    0.000000   0.000000   0.000000   0.000000   0.000000   0.000000
    45  O   -0.000172   0.002815  -0.000893   0.000005   0.000005   0.000000
    46  H    0.000001  -0.000079   0.000524   0.000001   0.000011   0.000000
    47  H   -0.000002  -0.000028   0.000059   0.000000   0.000000   0.000000
    48  O   -0.000001   0.000000   0.000000   0.000000   0.000000  -0.105999
    49  H    0.000000   0.000000   0.000000   0.000000   0.000000   0.000953
    50  H    0.000000   0.000000   0.000000   0.000000   0.000000   0.063933
              37         38         39         40         41         42
     1  C    0.000110  -0.000342   0.000245   0.000005  -0.000508   0.001039
     2  H    0.000000   0.000000   0.000000   0.000000   0.000000   0.000000
     3  H    0.000000   0.000000   0.000000   0.000000   0.000000  -0.000005
     4  C   -0.000091   0.000535  -0.008907  -0.000065   0.005108  -0.000436
     5  H    0.000000   0.000000  -0.000006   0.000000  -0.000004  -0.000012
     6  C    0.000750  -0.001033  -0.005576   0.000285  -0.003014  -0.000710
     7  H   -0.000005  -0.000159   0.001241   0.000016  -0.001519   0.000004
     8  O    0.000179   0.004719  -0.000680  -0.000023   0.000849  -0.000005
     9  O   -0.000796   0.005229  -0.004125   0.002114   0.029464   0.000000
    10  H    0.000008  -0.000093  -0.000097   0.000062   0.002118   0.000001
    11  H   -0.000248  -0.001046  -0.003794  -0.000176   0.000836   0.000000
    12  O   -0.000004   0.000053   0.000004   0.000000   0.000000   0.000000
    13  H    0.000000   0.000000   0.000000   0.000000   0.000000   0.000009
    14  H   -0.000015   0.000000  -0.000001   0.000000   0.000001   0.000004
    15  O    0.000000   0.000000   0.000000   0.000000   0.000000  -0.068363
    16  H    0.000000   0.000000   0.000000   0.000000   0.000000   0.001136
    17  H    0.000000   0.000000   0.000000   0.000000   0.000000   0.042246
    18  O    0.000192  -0.000835  -0.000037  -0.000003   0.000006   0.000000
    19  H   -0.000088   0.001986  -0.000055   0.000000   0.000011   0.000000
    20  H   -0.000005  -0.000055   0.000000   0.000000   0.000000   0.000000
    21  O    0.000994   0.020265  -0.005520  -0.000631  -0.002031   0.000000
    22  H   -0.000038   0.001560  -0.005379  -0.000004   0.000206   0.000000
    23  H   -0.000027  -0.001761   0.000231  -0.000023   0.000099   0.000000
    24  O    0.000000   0.000000   0.000000   0.000000   0.000000   0.000100
    25  H    0.000000   0.000000   0.000000   0.000000   0.000000   0.000001
    26  H    0.000000   0.000000   0.000000   0.000000   0.000000   0.000197
    27  O    0.000000   0.000000   0.000000   0.000000   0.000000   0.000000
    28  H    0.000000   0.000000   0.000000   0.000000   0.000000   0.000000
    29  H    0.000000   0.000000   0.000000   0.000000   0.000000   0.000000
    30  O    0.000022  -0.000036   0.000000   0.000000   0.000000   0.000000
    31  H   -0.000008  -0.000102   0.000000   0.000000   0.000000   0.000000
    32  H    0.000000   0.000000   0.000000   0.000000   0.000000   0.000000
    33  O    0.000000   0.000000   0.000000   0.000000   0.000000   0.000000
    34  H    0.000000   0.000000   0.000000   0.000000   0.000000   0.000000
    35  H    0.000000   0.000000   0.000000   0.000000   0.000000   0.000000
    36  O    0.190254   0.082523   0.000308  -0.000001   0.000258   0.000000
    37  H    0.154664  -0.003773  -0.000003   0.000000  -0.000001   0.000000
    38  H   -0.003773   0.217420  -0.000100   0.000003   0.000002   0.000000
    39  O   -0.000003  -0.000100   8.864931   0.216256   0.158017   0.000000
    40  H    0.000000   0.000003   0.216256   0.188345  -0.008362   0.000000
    41  H   -0.000001   0.000002   0.158017  -0.008362   0.202728   0.000000
    42  O    0.000000   0.000000   0.000000   0.000000   0.000000   8.828107
    43  H    0.000000   0.000000   0.000000   0.000000   0.000000   0.209786
    44  H    0.000000   0.000000   0.000000   0.000000   0.000000   0.209665
    45  O    0.000000   0.000000   0.000000   0.000000   0.000000   0.000000
    46  H    0.000000   0.000000   0.000000   0.000000   0.000000   0.000000
    47  H    0.000000   0.000000   0.000000   0.000000   0.000000   0.000000
    48  O    0.001128   0.004729  -0.002190  -0.000184   0.000834   0.000000
    49  H   -0.000080  -0.000015   0.000024  -0.000001   0.000004   0.000000
    50  H   -0.003200   0.000703   0.000113  -0.000006   0.000001   0.000000
              43         44         45         46         47         48
     1  C   -0.000164   0.000015  -0.000110   0.000107   0.000003  -0.000049
     2  H    0.000000   0.000000  -0.000001   0.000000   0.000000   0.000000
     3  H    0.000000   0.000000   0.000000   0.000000   0.000000   0.000000
     4  C    0.001020  -0.000776  -0.000012  -0.000080   0.000000   0.003802
     5  H   -0.000005   0.000000   0.000000   0.000000   0.000000   0.000000
     6  C   -0.000643   0.000593  -0.000096   0.000006   0.000002   0.000811
     7  H    0.000000   0.000000   0.000000   0.000000   0.000000  -0.000146
     8  O    0.000000   0.000000   0.000002  -0.000001   0.000000  -0.003954
     9  O    0.000000   0.000000   0.000000   0.000000   0.000000  -0.073121
    10  H    0.000000   0.000000   0.000000   0.000000   0.000000  -0.002101
    11  H    0.000000   0.000000   0.000000   0.000000   0.000000   0.059618
    12  O    0.000000   0.000000   0.000000   0.000000   0.000000  -0.000274
    13  H    0.000000   0.000000   0.000000   0.000000   0.000000   0.000000
    14  H    0.000000   0.000000   0.000000   0.000000   0.000000  -0.000028
    15  O    0.000870  -0.000720   0.000000   0.000000   0.000000  -0.000001
    16  H    0.000027   0.000007   0.000000   0.000000   0.000000   0.000000
    17  H   -0.000190  -0.001654   0.000000   0.000000   0.000000   0.000000
    18  O    0.000000   0.000000  -0.000016   0.000000   0.000001   0.000305
    19  H    0.000000   0.000000  -0.000002   0.000000   0.000000  -0.000041
    20  H    0.000000   0.000000   0.000001   0.000000   0.000000  -0.000012
    21  O    0.000000   0.000000   0.000002   0.000000   0.000000   0.003622
    22  H    0.000000   0.000000   0.000000   0.000000   0.000000   0.001410
    23  H    0.000000   0.000000   0.000000   0.000000   0.000000  -0.000129
    24  O   -0.000004   0.000017   0.000000   0.000000   0.000000  -0.000001
    25  H    0.000000   0.000000   0.000000   0.000000   0.000000   0.000000
    26  H   -0.000003  -0.000004   0.000000   0.000000   0.000000   0.000000
    27  O    0.000000   0.000000  -0.080501   0.033654   0.002711   0.000000
    28  H    0.000000   0.000000   0.001893   0.000792   0.000057   0.000000
    29  H    0.000000   0.000000  -0.000304  -0.000523  -0.000003   0.000000
    30  O    0.000000   0.000000  -0.001792  -0.000454   0.000446  -0.000004
    31  H    0.000000   0.000000  -0.000172   0.000001  -0.000002  -0.000001
    32  H    0.000000   0.000000   0.002815  -0.000079  -0.000028   0.000000
    33  O    0.000000   0.000000  -0.000893   0.000524   0.000059   0.000000
    34  H    0.000000   0.000000   0.000005   0.000001   0.000000   0.000000
    35  H    0.000000   0.000000   0.000005   0.000011   0.000000   0.000000
    36  O    0.000000   0.000000   0.000000   0.000000   0.000000  -0.105999
    37  H    0.000000   0.000000   0.000000   0.000000   0.000000   0.001128
    38  H    0.000000   0.000000   0.000000   0.000000   0.000000   0.004729
    39  O    0.000000   0.000000   0.000000   0.000000   0.000000  -0.002190
    40  H    0.000000   0.000000   0.000000   0.000000   0.000000  -0.000184
    41  H    0.000000   0.000000   0.000000   0.000000   0.000000   0.000834
    42  O    0.209786   0.209665   0.000000   0.000000   0.000000   0.000000
    43  H    0.170973  -0.005163   0.000000   0.000000   0.000000   0.000000
    44  H   -0.005163   0.159846   0.000000   0.000000   0.000000   0.000000
    45  O    0.000000   0.000000   8.823441   0.156305   0.232075   0.000000
    46  H    0.000000   0.000000   0.156305   0.204441  -0.007846   0.000000
    47  H    0.000000   0.000000   0.232075  -0.007846   0.294788   0.000000
    48  O    0.000000   0.000000   0.000000   0.000000   0.000000   9.013711
    49  H    0.000000   0.000000   0.000000   0.000000   0.000000   0.193461
    50  H    0.000000   0.000000   0.000000   0.000000   0.000000   0.107125
              49         50
     1  C    0.000000  -0.000029
     2  H    0.000000   0.000000
     3  H    0.000000   0.000000
     4  C    0.000002  -0.001141
     5  H    0.000000   0.000000
     6  C   -0.000155  -0.001948
     7  H    0.000001  -0.000001
     8  O    0.000000  -0.000238
     9  O    0.002791   0.018806
    10  H   -0.000125  -0.000949
    11  H    0.000011  -0.008599
    12  O    0.000006   0.000058
    13  H    0.000000   0.000000
    14  H   -0.000001   0.000004
    15  O    0.000000   0.000000
    16  H    0.000000   0.000000
    17  H    0.000000   0.000000
    18  O   -0.000002   0.000206
    19  H    0.000000  -0.000016
    20  H    0.000000   0.000000
    21  O   -0.000285   0.004301
    22  H    0.000012  -0.001118
    23  H    0.000004   0.000000
    24  O    0.000000   0.000000
    25  H    0.000000   0.000000
    26  H    0.000000   0.000000
    27  O    0.000000   0.000000
    28  H    0.000000   0.000000
    29  H    0.000000   0.000000
    30  O    0.000000   0.000000
    31  H    0.000000   0.000000
    32  H    0.000000   0.000000
    33  O    0.000000   0.000000
    34  H    0.000000   0.000000
    35  H    0.000000   0.000000
    36  O    0.000953   0.063933
    37  H   -0.000080  -0.003200
    38  H   -0.000015   0.000703
    39  O    0.000024   0.000113
    40  H   -0.000001  -0.000006
    41  H    0.000004   0.000001
    42  O    0.000000   0.000000
    43  H    0.000000   0.000000
    44  H    0.000000   0.000000
    45  O    0.000000   0.000000
    46  H    0.000000   0.000000
    47  H    0.000000   0.000000
    48  O    0.193461   0.107125
    49  H    0.146334   0.000836
    50  H    0.000836   0.245086
 Mulliken charges:
               1
     1  C   -0.344156
     2  H    0.270531
     3  H    0.222519
     4  C   -0.177996
     5  H    0.224252
     6  C    0.024346
     7  H    0.172070
     8  O   -0.346981
     9  O   -1.337962
    10  H    0.497715
    11  H    0.667089
    12  O   -1.114368
    13  H    0.609676
    14  H    0.498330
    15  O   -1.173878
    16  H    0.589364
    17  H    0.599306
    18  O   -1.243680
    19  H    0.611700
    20  H    0.617934
    21  O   -1.284843
    22  H    0.651689
    23  H    0.668507
    24  O   -1.246386
    25  H    0.648761
    26  H    0.578021
    27  O   -1.214481
    28  H    0.560859
    29  H    0.639293
    30  O   -1.229000
    31  H    0.596286
    32  H    0.632330
    33  O   -1.167309
    34  H    0.634874
    35  H    0.587701
    36  O   -1.291325
    37  H    0.660080
    38  H    0.669624
    39  O   -1.204901
    40  H    0.602391
    41  H    0.614897
    42  O   -1.222764
    43  H    0.623496
    44  H    0.638177
    45  O   -1.132646
    46  H    0.613141
    47  H    0.477738
    48  O   -1.202320
    49  H    0.656227
    50  H    0.576073
 Sum of Mulliken charges =   0.00000
 Mulliken charges with hydrogens summed into heavy atoms:
               1
     1  C    0.148895
     4  C    0.046256
     6  C    0.196416
     8  O   -0.346981
     9  O   -0.173158
    12  O   -0.006362
    15  O    0.014792
    18  O   -0.014047
    21  O    0.035353
    24  O   -0.019604
    27  O   -0.014328
    30  O   -0.000383
    33  O    0.055266
    36  O    0.038379
    39  O    0.012387
    42  O    0.038908
    45  O   -0.041767
    48  O    0.029980
 Electronic spatial extent (au):  <R**2>=          12548.3415
 Charge=              0.0000 electrons
 Dipole moment (field-independent basis, Debye):
    X=             14.2686    Y=            -11.0335    Z=             -5.7569  Tot=             18.9333
 Quadrupole moment (field-independent basis, Debye-Ang):
   XX=           -136.6594   YY=            -48.5585   ZZ=           -128.6085
   XY=            -20.8416   XZ=             -1.1391   YZ=              9.2406
 Traceless Quadrupole moment (field-independent basis, Debye-Ang):
   XX=            -32.0506   YY=             56.0503   ZZ=            -23.9997
   XY=            -20.8416   XZ=             -1.1391   YZ=              9.2406
 Octapole moment (field-independent basis, Debye-Ang**2):
  XXX=            591.2055  YYY=           -206.7396  ZZZ=             -8.6131  XYY=            -62.6189
  XXY=           -131.1315  XXZ=           -113.9482  XZZ=             -0.8559  YZZ=            -77.4274
  YYZ=             32.4082  XYZ=            114.0802
 Hexadecapole moment (field-independent basis, Debye-Ang**3):
 XXXX=          -7299.4075 YYYY=          -3574.7800 ZZZZ=          -1701.9596 XXXY=           -857.6371
 XXXZ=            -38.8754 YYYX=           -151.1526 YYYZ=           -340.0771 ZZZX=            -84.9867
 ZZZY=            430.2772 XXYY=          -1846.7448 XXZZ=          -1254.8949 YYZZ=          -1024.6672
 XXYZ=            203.5604 YYXZ=            309.6480 ZZXY=           -129.2524
 N-N= 1.093430574262D+03 E-N=-6.152824339200D+03  KE= 1.249315815429D+03
 Leave Link  601 at Fri Sep 14 18:18:06 2018, MaxMem=    33554432 cpu:         2.3
 (Enter /usr/local/pacerepov1/gaussian/G09D01LINDA/g09/l9999.exe)

 Test job not archived.
 1\1\GINC-RICH133-G13-19-R\SP\RLC-wPBE TD-FC\6-31+G(d)\C3H32O15\ROOT\14
 -Sep-2018\0\\#p td=(nstates=15)/6-31+g(d) lc-wpbe charge\\Acroleina in
  Water\\0,1\C,0,0.485154,0.480443,-1.430142\H,0,1.461403,0.187773,-1.0
 55732\H,0,0.429244,0.878853,-2.437062\C,0,-0.605127,0.346563,-0.658432
 \H,0,-1.591686,0.632893,-1.012412\C,0,-0.508516,-0.199107,0.712798\H,0
 ,-1.458487,-0.272107,1.272438\O,0,0.544883,-0.561317,1.236519\O,0,-1.1
 21567,-0.738009,3.271432\H,0,-0.751407,-0.178839,2.529592\H,0,-0.70280
 7,-0.462999,4.136912\O,0,2.379473,2.135041,1.431622\H,0,2.029653,3.027
 611,1.146982\H,0,1.614063,1.539411,1.675372\O,0,-0.518117,4.34676,-0.1
 62598\H,0,-0.153687,5.267711,-0.300718\H,0,-1.513227,4.36403,-0.260108
 \O,0,1.405143,-4.390289,1.854882\H,0,0.741573,-3.73437,2.214772\H,0,1.
 642303,-5.049829,2.568192\O,0,0.058403,-2.738509,3.035392\H,0,-0.61290
 7,-2.016599,2.867362\H,0,-0.388227,-3.51,3.488522\O,0,1.759593,4.36418
 1,0.696392\H,0,2.183953,4.80435,-0.094918\H,0,0.776113,4.273291,0.5396
 02\O,0,3.715383,-2.605469,-3.712018\H,0,4.490903,-2.34291,-3.137818\H,
 0,3.110423,-1.818759,-3.835178\O,0,3.284573,-4.67323,0.454932\H,0,2.38
 5193,-4.497829,0.855442\H,0,3.204103,-5.37931,-0.248668\O,0,2.603283,-
 0.569919,-4.063447\H,0,2.116203,-0.015789,-4.738558\H,0,3.438893,-0.09
 6749,-3.784318\O,0,1.802043,-1.838039,4.347783\H,0,2.514873,-1.300319,
 3.897472\H,0,1.158603,-2.17892,3.662332\O,0,-3.497057,-1.329199,3.6515
 12\H,0,-3.322767,-1.844549,4.490613\H,0,-2.650157,-0.894239,3.345542\O
 ,0,-2.929417,4.80118,-0.430718\H,0,-3.703407,4.33601,-0.860398\H,0,-3.
 134147,4.96727,0.533922\O,0,3.738993,-4.87235,-3.015088\H,0,3.674453,-
 3.886209,-3.168088\H,0,3.571543,-5.35469,-3.874968\O,0,0.160453,-0.278
 829,5.321462\H,0,0.703483,0.248901,5.974642\H,0,0.734373,-0.982569,4.9
 02682\\Version=EM64L-G09RevD.01\State=1-A\HF=-1759.3506746\RMSD=3.644e
 -09\PG=C01 [X(C3H32O15)]\\@


    THE DOUGHNUT CREED
 AS YOU RAMBLE ON THROUGH LIFE, BROTHER
 WHATEVER BE YOUR GOAL
 KEEP YOUR EYE UPON THE DOUGHNUT
 AND NOT UPON THE HOLE.
 Job cpu time:       0 days  2 hours 50 minutes 53.4 seconds.
 File lengths (MBytes):  RWF=    792 Int=      0 D2E=      0 Chk=     96 Scr=      2
 Normal termination of Gaussian 09 at Fri Sep 14 18:18:09 2018.
